
                                 *****************
                                 * O   R   C   A *
                                 *****************

                                            #,                                       
                                            ###                                      
                                            ####                                     
                                            #####                                    
                                            ######                                   
                                           ########,                                 
                                     ,,################,,,,,                         
                               ,,#################################,,                 
                          ,,##########################################,,             
                       ,#########################################, ''#####,          
                    ,#############################################,,   '####,        
                  ,##################################################,,,,####,       
                ,###########''''           ''''###############################       
              ,#####''   ,,,,##########,,,,          '''####'''          '####       
            ,##' ,,,,###########################,,,                        '##       
           ' ,,###''''                  '''############,,,                           
         ,,##''                                '''############,,,,        ,,,,,,###''
      ,#''                                            '''#######################'''  
     '                                                          ''''####''''         
             ,#######,   #######,   ,#######,      ##                                
            ,#'     '#,  ##    ##  ,#'     '#,    #''#        ######   ,####,        
            ##       ##  ##   ,#'  ##            #'  '#       #        #'  '#        
            ##       ##  #######   ##           ,######,      #####,   #    #        
            '#,     ,#'  ##    ##  '#,     ,#' ,#      #,         ##   #,  ,#        
             '#######'   ##     ##  '#######'  #'      '#     #####' # '####'        



                  #######################################################
                  #                        -***-                        #
                  #          Department of theory and spectroscopy      #
                  #    Directorship and core code : Frank Neese         #
                  #        Max Planck Institute fuer Kohlenforschung    #
                  #                Kaiser Wilhelm Platz 1               #
                  #                 D-45470 Muelheim/Ruhr               #
                  #                      Germany                        #
                  #                                                     #
                  #                  All rights reserved                #
                  #                        -***-                        #
                  #######################################################


                         Program Version 5.0.4 -  RELEASE  -


 With contributions from (in alphabetic order):
   Daniel Aravena         : Magnetic Suceptibility
   Michael Atanasov       : Ab Initio Ligand Field Theory (pilot matlab implementation)
   Alexander A. Auer      : GIAO ZORA, VPT2 properties, NMR spectrum
   Ute Becker             : Parallelization
   Giovanni Bistoni       : ED, misc. LED, open-shell LED, HFLD
   Martin Brehm           : Molecular dynamics
   Dmytro Bykov           : SCF Hessian
   Vijay G. Chilkuri      : MRCI spin determinant printing, contributions to CSF-ICE
   Dipayan Datta          : RHF DLPNO-CCSD density
   Achintya Kumar Dutta   : EOM-CC, STEOM-CC
   Dmitry Ganyushin       : Spin-Orbit,Spin-Spin,Magnetic field MRCI
   Miquel Garcia          : C-PCM and meta-GGA Hessian, CC/C-PCM, Gaussian charge scheme
   Yang Guo               : DLPNO-NEVPT2, F12-NEVPT2, CIM, IAO-localization
   Andreas Hansen         : Spin unrestricted coupled pair/coupled cluster methods
   Benjamin Helmich-Paris : MC-RPA, TRAH-SCF, COSX integrals
   Lee Huntington         : MR-EOM, pCC
   Robert Izsak           : Overlap fitted RIJCOSX, COSX-SCS-MP3, EOM
   Marcus Kettner         : VPT2
   Christian Kollmar      : KDIIS, OOCD, Brueckner-CCSD(T), CCSD density, CASPT2, CASPT2-K
   Simone Kossmann        : Meta GGA functionals, TD-DFT gradient, OOMP2, MP2 Hessian
   Martin Krupicka        : Initial AUTO-CI
   Lucas Lang             : DCDCAS
   Marvin Lechner         : AUTO-CI (C++ implementation), FIC-MRCC
   Dagmar Lenk            : GEPOL surface, SMD
   Dimitrios Liakos       : Extrapolation schemes; Compound Job, initial MDCI parallelization
   Dimitrios Manganas     : Further ROCIS development; embedding schemes
   Dimitrios Pantazis     : SARC Basis sets
   Anastasios Papadopoulos: AUTO-CI, single reference methods and gradients
   Taras Petrenko         : DFT Hessian,TD-DFT gradient, ASA, ECA, R-Raman, ABS, FL, XAS/XES, NRVS
   Peter Pinski           : DLPNO-MP2, DLPNO-MP2 Gradient
   Christoph Reimann      : Effective Core Potentials
   Marius Retegan         : Local ZFS, SOC
   Christoph Riplinger    : Optimizer, TS searches, QM/MM, DLPNO-CCSD(T), (RO)-DLPNO pert. Triples
   Tobias Risthaus        : Range-separated hybrids, TD-DFT gradient, RPA, STAB
   Michael Roemelt        : Original ROCIS implementation
   Masaaki Saitow         : Open-shell DLPNO-CCSD energy and density
   Barbara Sandhoefer     : DKH picture change effects
   Avijit Sen             : IP-ROCIS
   Kantharuban Sivalingam : CASSCF convergence, NEVPT2, FIC-MRCI
   Bernardo de Souza      : ESD, SOC TD-DFT
   Georgi Stoychev        : AutoAux, RI-MP2 NMR, DLPNO-MP2 response
   Willem Van den Heuvel  : Paramagnetic NMR
   Boris Wezisla          : Elementary symmetry handling
   Frank Wennmohs         : Technical directorship


 We gratefully acknowledge several colleagues who have allowed us to
 interface, adapt or use parts of their codes:
   Stefan Grimme, W. Hujo, H. Kruse, P. Pracht,  : VdW corrections, initial TS optimization,
                  C. Bannwarth, S. Ehlert          DFT functionals, gCP, sTDA/sTD-DF
   Ed Valeev, F. Pavosevic, A. Kumar             : LibInt (2-el integral package), F12 methods
   Garnet Chan, S. Sharma, J. Yang, R. Olivares  : DMRG
   Ulf Ekstrom                                   : XCFun DFT Library
   Mihaly Kallay                                 : mrcc  (arbitrary order and MRCC methods)
   Jiri Pittner, Ondrej Demel                    : Mk-CCSD
   Frank Weinhold                                : gennbo (NPA and NBO analysis)
   Christopher J. Cramer and Donald G. Truhlar   : smd solvation model
   Lars Goerigk                                  : TD-DFT with DH, B97 family of functionals
   V. Asgeirsson, H. Jonsson                     : NEB implementation
   FAccTs GmbH                                   : IRC, NEB, NEB-TS, DLPNO-Multilevel, CI-OPT
                                                   MM, QMMM, 2- and 3-layer-ONIOM, Crystal-QMMM,
                                                   LR-CPCM, SF, NACMEs, symmetry and pop. for TD-DFT,
                                                   nearIR, NL-DFT gradient (VV10), updates on ESD,
                                                   ML-optimized integration grids
   S Lehtola, MJT Oliveira, MAL Marques          : LibXC Library
   Liviu Ungur et al                             : ANISO software


 Your calculation uses the libint2 library for the computation of 2-el integrals
 For citations please refer to: http://libint.valeyev.net

 Your ORCA version has been built with support for libXC version: 5.1.0
 For citations please refer to: https://tddft.org/programs/libxc/

 This ORCA versions uses:
   CBLAS   interface :  Fast vector & matrix operations
   LAPACKE interface :  Fast linear algebra routines
   SCALAPACK package :  Parallel linear algebra routines
   Shared memory     :  Shared parallel matrices
   BLAS/LAPACK       :  OpenBLAS 0.3.15  USE64BITINT DYNAMIC_ARCH NO_AFFINITY SkylakeX SINGLE_THREADED
        Core in use  :  SkylakeX
   Copyright (c) 2011-2014, The OpenBLAS Project




***************************************
The coordinates will be read from file: reaction-6-rct-xtb.xyz
***************************************


Your calculation utilizes the geometrical counterpoise correction gCP
Please cite in your paper:
H.Kruse, S. Grimme J.Chem.Phys., 136, (2012), 154101 
   

Your calculation utilizes the atom-pairwise dispersion correction
with the Becke-Johnson damping scheme (D3BJ)
Cite in your paper:
S.Grimme, S.Ehrlich, L.Goerigk, J Comput Chem, (2011), 32, 1456–1465 
S.Grimme, J.Antony, S.Ehrlich and H.Krieg, J.Chem.Phys., 132, (2010), 154104 
   

Your calculation employs the composite approach PBEh-3c.
Please cite in your paper:
S. Grimme, J. G. Brandenburg, C. Bannwarth, A. Hansen J.Chem.Phys., 143, (2015), 054107 
   

================================================================================

cite the ECPs for Pt [Def2-ECP] as follows:
Ce-Yb(ecp-28): M. Dolg, H. Stoll, H.Preuss, J. Chem. Phys., 1989, 90, 1730-1734.
Y-Cd(ecp-28), Hf-Hg(ecp-46): D. Andrae,U. Haeussermann, M. Dolg, H. Stoll, H. Preuss, Theor. Chim. Acta, 1990, 77, 123-141.
In-Sb(ecp-28), Tl-Bi(ecp-46): B. Metz, H. Stoll, M. Dolg, J. Chem. Phys., 2000, 113, 2563-2569.
Te-Xe(ecp-28), Po-Rn(ecp-46): K. A. Peterson, D. Figgen, E. Goll, H. Stoll, M. Dolg, J. Chem. Phys., 2003, 119, 11113-11123.
Rb(ecp-28), Cs(ecp-46): T. Leininger, A. Nicklass, W. Kuechle, H. Stoll, M. Dolg, A. Bergner, Chem. Phys. Lett., 1996, 255, 274-280.
Sr(ecp-28), Ba(ecp-46): M. Kaupp, P. V. Schleyer, H. Stoll and H. Preuss, J. Chem. Phys., 1991, 94, 1360-1366.
La(ecp-46): M. Dolg, H. Stoll, A. Savin, H. Preuss, Theor. Chim. Acta, 1989, 75, 173-194.
Lu(ecp-28): X. Cao, M. Dolg, J. Chem. Phys., 2001, 115, 7348-7355.

ECP parameters for Pt [Def2-ECP] have been obtained from:
TURBOMOLE (7.0.2)

----- Orbital basis set information -----
Your calculation utilizes the basis: def2-mSVP

----- AuxJ basis set information -----
Your calculation utilizes the auxiliary basis: def2/J
   F. Weigend, Phys. Chem. Chem. Phys. 8, 1057 (2006).

================================================================================
                                        WARNINGS
                       Please study these warnings very carefully!
================================================================================


WARNING: Geometry Optimization
  ===> : Switching off AutoStart
         For restart on a previous wavefunction, please use MOREAD

WARNING: No Hueckel Guess possible with ECP basis!
  ===> : Switching to HCORE guess!

INFO   : the flag for use of the SHARK integral package has been found!

================================================================================
                                       INPUT FILE
================================================================================
NAME = reaction-6-rct-pbeh3c-orca_opt.inp
|  1> ! PBEh-3c OPT pal4
|  2> 
|  3> %geom
|  4>  maxiter 600
|  5> end 
|  6> 
|  7> *xyzfile -1 1 reaction-6-rct-xtb.xyz
|  8> 
|  9>                          ****END OF INPUT****
================================================================================

                       *****************************
                       * Geometry Optimization Run *
                       *****************************

Geometry optimization settings:
Update method            Update   .... BFGS
Choice of coordinates    CoordSys .... Z-matrix Internals
Initial Hessian          InHess   .... Almoef's Model

Convergence Tolerances:
Energy Change            TolE     ....  5.0000e-06 Eh
Max. Gradient            TolMAXG  ....  3.0000e-04 Eh/bohr
RMS Gradient             TolRMSG  ....  1.0000e-04 Eh/bohr
Max. Displacement        TolMAXD  ....  4.0000e-03 bohr
RMS Displacement         TolRMSD  ....  2.0000e-03 bohr
Strict Convergence                ....  False
------------------------------------------------------------------------------
                        ORCA OPTIMIZATION COORDINATE SETUP
------------------------------------------------------------------------------

The optimization will be done in new redundant internal coordinates
Making redundant internal coordinates   ...  (new redundants) done
Evaluating the initial hessian          ...  (Almloef) done
Evaluating the coordinates              ...  done
Calculating the B-matrix                .... done
Calculating the G-matrix                .... done
Diagonalizing the G-matrix              .... done
The first mode is                       ....    6
The number of degrees of freedom        ....   21

    -----------------------------------------------------------------
                    Redundant Internal Coordinates


    -----------------------------------------------------------------
         Definition                    Initial Value    Approx d2E/dq
    -----------------------------------------------------------------
      1. B(Cl  1,Pt  0)                  2.2997         0.069026   
      2. B(Cl  2,Pt  0)                  2.2122         0.095176   
      3. B(Cl  3,Pt  0)                  2.3007         0.068773   
      4. B(H   5,C   4)                  1.0850         0.366827   
      5. B(H   6,C   4)                  1.1156         0.327792   
      6. B(H   6,Pt  0)                  1.8043         0.036343   
      7. B(H   7,C   4)                  1.0844         0.367642   
      8. B(H   8,C   4)                  1.0853         0.366335   
      9. A(Cl  1,Pt  0,H   6)           86.7288         0.195699   
     10. A(Cl  1,Pt  0,Cl  3)          174.7067         0.237894   
     11. A(Cl  3,Pt  0,H   6)           88.0986         0.195611   
     12. A(Cl  2,Pt  0,H   6)          171.1036         0.203746   
     13. A(Cl  1,Pt  0,Cl  2)           92.6043         0.249256   
     14. A(Cl  2,Pt  0,Cl  3)           92.6797         0.249123   
     15. A(H   5,C   4,H   8)          109.6353         0.292476   
     16. A(H   6,C   4,H   7)          108.9444         0.287519   
     17. A(H   5,C   4,H   7)          110.5522         0.292640   
     18. A(H   7,C   4,H   8)          110.3995         0.292578   
     19. A(H   6,C   4,H   8)          110.1847         0.287360   
     20. A(H   5,C   4,H   6)          107.0652         0.287420   
     21. A(Pt  0,H   6,C   4)          137.9610         0.210564   
     22. D(C   4,H   6,Pt  0,Cl  2)    177.3256         0.001903   
     23. D(C   4,H   6,Pt  0,Cl  3)     82.1389         0.001903   
     24. D(Pt  0,H   6,C   4,H   5)    161.6809         0.096760   
     25. D(Pt  0,H   6,C   4,H   7)    -78.7399         0.096760   
     26. D(Pt  0,H   6,C   4,H   8)     42.5136         0.096760   
     27. D(C   4,H   6,Pt  0,Cl  1)    -96.7366         0.001903   
    -----------------------------------------------------------------

Number of atoms                         .... 9
Number of degrees of freedom            .... 27

         *************************************************************
         *                GEOMETRY OPTIMIZATION CYCLE   1            *
         *************************************************************
---------------------------------
CARTESIAN COORDINATES (ANGSTROEM)
---------------------------------
  Pt    -1.110420   -0.556030    0.366330
  Cl    -0.778470    0.283510    2.481380
  Cl    -3.145970   -1.268390    0.859270
  Cl    -1.252080   -1.316530   -1.800380
  C      1.259630    0.584360   -0.390080
  H      2.272160    0.451990   -0.023470
  H      0.637170   -0.218910    0.070180
  H      1.228580    0.479200   -1.468880
  H      0.889410    1.560790   -0.094350

----------------------------
CARTESIAN COORDINATES (A.U.)
----------------------------
  NO LB      ZA    FRAG     MASS         X           Y           Z
   0 Pt   18.0000*   0   195.090   -2.098390   -1.050744    0.692263
   1 Cl   17.0000    0    35.453   -1.471095    0.535756    4.689129
   2 Cl   17.0000    0    35.453   -5.945022   -2.396910    1.623785
   3 Cl   17.0000    0    35.453   -2.366088   -2.487881   -3.402225
   4 C     6.0000    0    12.011    2.380356    1.104280   -0.737144
   5 H     1.0000    0     1.008    4.293760    0.854137   -0.044352
   6 H     1.0000    0     1.008    1.204077   -0.413680    0.132621
   7 H     1.0000    0     1.008    2.321680    0.905557   -2.775781
   8 H     1.0000    0     1.008    1.680741    2.949466   -0.178296
* core charge reduced due to ECP

--------------------------------
INTERNAL COORDINATES (ANGSTROEM)
--------------------------------
 Pt     0   0   0     0.000000000000     0.00000000     0.00000000
 Cl     1   0   0     2.299664044290     0.00000000     0.00000000
 Cl     1   2   0     2.212218437610    92.60434021     0.00000000
 Cl     1   2   3     2.300665127675   174.70667542   176.60726179
 C      1   2   3     2.736746689539    88.68623881   173.15025725
 H      5   1   2     1.084961616787   131.60291313    58.93769293
 H      5   1   2     1.115588818562    26.19819400    82.63001622
 H      5   1   2     1.084357952016   102.10858682   191.05557485
 H      5   1   2     1.085326967416    90.23876905   301.99575229

---------------------------
INTERNAL COORDINATES (A.U.)
---------------------------
 Pt     0   0   0     0.000000000000     0.00000000     0.00000000
 Cl     1   0   0     4.345735243734     0.00000000     0.00000000
 Cl     1   2   0     4.180486995493    92.60434021     0.00000000
 Cl     1   2   3     4.347627017169   174.70667542   176.60726179
 C      1   2   3     5.171701741143    88.68623881   173.15025725
 H      5   1   2     2.050280321543   131.60291313    58.93769293
 H      5   1   2     2.108157345146    26.19819400    82.63001622
 H      5   1   2     2.049139560450   102.10858682   191.05557485
 H      5   1   2     2.050970734175    90.23876905   301.99575229

---------------------
BASIS SET INFORMATION
---------------------
There are 4 groups of distinct atoms

 Group   1 Type Pt  : 7s6p5d1f contracted to 6s3p2d1f pattern {211111/411/41/1}
 Group   2 Type Cl  : 10s7p1d contracted to 4s3p1d pattern {5311/511/1}
 Group   3 Type C   : 8s4p1d contracted to 4s2p1d pattern {5111/31/1}
 Group   4 Type H   : 4s contracted to 2s pattern {31}

Atom   0Pt   basis set group =>   1
Atom   1Cl   basis set group =>   2
Atom   2Cl   basis set group =>   2
Atom   3Cl   basis set group =>   2
Atom   4C    basis set group =>   3
Atom   5H    basis set group =>   4
Atom   6H    basis set group =>   4
Atom   7H    basis set group =>   4
Atom   8H    basis set group =>   4
---------------------------------
AUXILIARY/J BASIS SET INFORMATION
---------------------------------
There are 4 groups of distinct atoms

 Group   1 Type Pt  : 11s5p5d3f3g contracted to 8s5p5d2f3g pattern {41111111/11111/11111/21/111}
 Group   2 Type Cl  : 14s5p5d2f1g contracted to 8s4p3d1f1g pattern {71111111/2111/311/2/1}
 Group   3 Type C   : 12s5p4d2f1g contracted to 6s4p3d1f1g pattern {711111/2111/211/2/1}
 Group   4 Type H   : 5s2p1d contracted to 3s1p1d pattern {311/2/1}

Atom   0Pt   basis set group =>   1
Atom   1Cl   basis set group =>   2
Atom   2Cl   basis set group =>   2
Atom   3Cl   basis set group =>   2
Atom   4C    basis set group =>   3
Atom   5H    basis set group =>   4
Atom   6H    basis set group =>   4
Atom   7H    basis set group =>   4
Atom   8H    basis set group =>   4
-------------------------
ECP PARAMETER INFORMATION
-------------------------

 Group 1, Type Pt ECP Def2-ECP (replacing 60 core electrons, lmax=3)

Atom   0Pt   ECP group =>   1



           ************************************************************
           *        Program running with 4 parallel MPI-processes     *
           *              working on a common directory               *
           ************************************************************
------------------------------------------------------------------------------
                           ORCA GTO INTEGRAL CALCULATION
                           -- RI-GTO INTEGRALS CHOSEN --
------------------------------------------------------------------------------
------------------------------------------------------------------------------
                   ___                                                        
                  /   \      - P O W E R E D   B Y -                         
                 /     \                                                     
                 |  |  |   _    _      __       _____    __    __             
                 |  |  |  | |  | |    /  \     |  _  \  |  |  /  |          
                  \  \/   | |  | |   /    \    | | | |  |  | /  /          
                 / \  \   | |__| |  /  /\  \   | |_| |  |  |/  /          
                |  |  |   |  __  | /  /__\  \  |    /   |      \           
                |  |  |   | |  | | |   __   |  |    \   |  |\   \          
                \     /   | |  | | |  |  |  |  | |\  \  |  | \   \       
                 \___/    |_|  |_| |__|  |__|  |_| \__\ |__|  \__/        
                                                                              
                      - O R C A' S   B I G   F R I E N D -                    
                                      &                                       
                       - I N T E G R A L  F E E D E R -                       
                                                                              
 v1 FN, 2020, v2 2021                                                         
------------------------------------------------------------------------------


Reading SHARK input file reaction-6-rct-pbeh3c-orca_opt.SHARKINP.tmp ... ok
----------------------
SHARK INTEGRAL PACKAGE
----------------------

Number of atoms                             ...      9
Number of basis functions                   ...    109
Number of shells                            ...     51
Maximum angular momentum                    ...      3
Integral batch strategy                     ... SHARK/LIBINT Hybrid
RI-J (if used) integral strategy            ... SPLIT-RIJ (Revised 2003 algorithm where possible)
Printlevel                                  ...      1
Contraction scheme used                     ... SEGMENTED contraction
Coulomb Range Separation                    ... NOT USED
Exchange Range Separation                   ... NOT USED
Finite Nucleus Model                        ... NOT USED
Auxiliary Coulomb fitting basis             ... AVAILABLE
   # of basis functions in Aux-J            ...    335
   # of shells in Aux-J                     ...    109
   Maximum angular momentum in Aux-J        ...      4
Auxiliary J/K fitting basis                 ... NOT available
Auxiliary Correlation fitting basis         ... NOT available
Auxiliary 'external' fitting basis          ... NOT available
Integral threshold                          ...     2.500000e-11
Primitive cut-off                           ...     2.500000e-12
Primitive pair pre-selection threshold      ...     2.500000e-12

Calculating pre-screening integrals         ... done (  0.0 sec) Dimension = 51
Organizing shell pair data                  ... done (  0.0 sec)
Shell pair information
Total number of shell pairs                 ...      1326
Shell pairs after pre-screening             ...      1183
Total number of primitive shell pairs       ...      5360
Primitive shell pairs kept                  ...      3447
          la=0 lb=0:    397 shell pairs
          la=1 lb=0:    367 shell pairs
          la=1 lb=1:     99 shell pairs
          la=2 lb=0:    168 shell pairs
          la=2 lb=1:     80 shell pairs
          la=2 lb=2:     21 shell pairs
          la=3 lb=0:     30 shell pairs
          la=3 lb=1:     14 shell pairs
          la=3 lb=2:      6 shell pairs
          la=3 lb=3:      1 shell pairs

Calculating one electron integrals          ... done (  0.0 sec)
Calculating ECP integrals                   ... done (  0.1 sec)
Calculating RI/J V-Matrix + Cholesky decomp.... done (  0.0 sec)
Calculating Nuclear repulsion               ... done (  0.0 sec) ENN=    459.213649560599 Eh

SHARK setup successfully completed in   0.3 seconds

Maximum memory used throughout the entire GTOINT-calculation: 14.1 MB


           ************************************************************
           *        Program running with 4 parallel MPI-processes     *
           *              working on a common directory               *
           ************************************************************
-------------------------------------------------------------------------------
                                 ORCA SCF
-------------------------------------------------------------------------------

------------
SCF SETTINGS
------------
Hamiltonian:
 Density Functional     Method          .... DFT(GTOs)
 Exchange Functional    Exchange        .... PBE
   PBE kappa parameter   XKappa         ....  1.024500
   PBE mue parameter    XMuePBE         ....  0.123457
 Correlation Functional Correlation     .... PBE
   PBE beta parameter  CBetaPBE         ....  0.030000
 LDA part of GGA corr.  LDAOpt          .... PW91-LDA
 Gradients option       PostSCFGGA      .... off
 Hybrid DFT is turned on
   Fraction HF Exchange ScalHFX         ....  0.420000
   Scaling of DF-GGA-X  ScalDFX         ....  0.580000
   Scaling of DF-GGA-C  ScalDFC         ....  1.000000
   Scaling of DF-LDA-C  ScalLDAC        ....  1.000000
   Perturbative correction              ....  0.000000
   Density functional embedding theory  .... OFF
 RI-approximation to the Coulomb term is turned on
   Number of AuxJ basis functions       .... 335
   RIJ-ON(X) (HFX calculated with O(N)) .... on
   Number of AuxJ basis functions       .... 335
   RIJ-COSX (HFX calculated with COS-X)).... on


General Settings:
 Integral files         IntName         .... reaction-6-rct-pbeh3c-orca_opt
 Hartree-Fock type      HFTyp           .... RHF
 Total Charge           Charge          ....   -1
 Multiplicity           Mult            ....    1
 Number of Electrons    NEL             ....   80
 Basis Dimension        Dim             ....  109
 Nuclear Repulsion      ENuc            ....    459.2136495606 Eh

Convergence Acceleration:
 DIIS                   CNVDIIS         .... on
   Start iteration      DIISMaxIt       ....    12
   Startup error        DIISStart       ....  0.200000
   # of expansion vecs  DIISMaxEq       ....     5
   Bias factor          DIISBfac        ....   1.050
   Max. coefficient     DIISMaxC        ....  10.000
 Trust-Rad. Augm. Hess. CNVTRAH         .... auto
   Auto Start mean grad. ratio tolernc. ....  1.125000
   Auto Start start iteration           ....    20
   Auto Start num. interpolation iter.  ....    10
   Max. Number of Micro iterations      ....    16
   Max. Number of Macro iterations      .... Maxiter - #DIIS iter
   Number of Davidson start vectors     ....     2
   Converg. threshold I  (grad. norm)   ....   1.000e-05
   Converg. threshold II (energy diff.) ....   1.000e-08
   Grad. Scal. Fac. for Micro threshold ....   0.100
   Minimum threshold for Micro iter.    ....   0.010
   NR start threshold (gradient norm)   ....   0.001
   Initial trust radius                 ....   0.400
   Minimum AH scaling param. (alpha)    ....   1.000
   Maximum AH scaling param. (alpha)    .... 1000.000
   Orbital update algorithm             .... Taylor
   White noise on init. David. guess    .... on
   Maximum white noise                  ....   0.010
   Quad. conv. algorithm                .... NR
   COSX micro iterations for RIJONX calc.... off
 SOSCF                  CNVSOSCF        .... off
 Level Shifting         CNVShift        .... on
   Level shift para.    LevelShift      ....    0.2500
   Turn off err/grad.   ShiftErr        ....    0.0010
 Zerner damping         CNVZerner       .... off
 Static damping         CNVDamp         .... on
   Fraction old density DampFac         ....    0.7000
   Max. Damping (<1)    DampMax         ....    0.9800
   Min. Damping (>=0)   DampMin         ....    0.0000
   Turn off err/grad.   DampErr         ....    0.1000
 Fernandez-Rico         CNVRico         .... off

SCF Procedure:
 Maximum # iterations   MaxIter         ....   125
 SCF integral mode      SCFMode         .... Direct
   Integral package                     .... SHARK and LIBINT hybrid scheme
 Reset frequency        DirectResetFreq ....    20
 Integral Threshold     Thresh          ....  2.500e-11 Eh
 Primitive CutOff       TCut            ....  2.500e-12 Eh

Convergence Tolerance:
 Convergence Check Mode ConvCheckMode   .... Total+1el-Energy
 Convergence forced     ConvForced      .... 0
 Energy Change          TolE            ....  1.000e-08 Eh
 1-El. energy change                    ....  1.000e-05 Eh
 DIIS Error             TolErr          ....  5.000e-07


Diagonalization of the overlap matrix:
Smallest eigenvalue                        ... 7.520e-03
Time for diagonalization                   ...    0.004 sec
Threshold for overlap eigenvalues          ... 1.000e-08
Number of eigenvalues below threshold      ... 0
Time for construction of square roots      ...    0.001 sec
Total time needed                          ...    0.005 sec

--------------------
INITIAL GUESS: HCORE
--------------------
                      -----------------
                      INTIAL GUESS DONE 
                      -----------------
-------------------
DFT GRID GENERATION
-------------------

General Integration Accuracy     IntAcc      ... 4.159
Radial Grid Type                 RadialGrid  ... OptM3 with GC (2021)
Angular Grid (max. ang.)         AngularGrid ... 3 (Lebedev-194)
Angular grid pruning method      GridPruning ... 4 (adaptive)
Weight generation scheme         WeightScheme... Becke
Basis function cutoff            BFCut       ... 1.0000e-11
Integration weight cutoff        WCut        ... 1.0000e-14
Angular grids for H and He will be reduced by one unit
Partially contracted basis set               ... off
Rotationally invariant grid construction     ... off

Total number of grid points                  ...    27591
Total number of batches                      ...      436
Average number of points per batch           ...       63
Average number of grid points per atom       ...     3066
Time for grid setup =    0.114 sec

--------------------
COSX GRID GENERATION
--------------------

GRIDX 1
-------
General Integration Accuracy     IntAcc      ... 3.816
Radial Grid Type                 RadialGrid  ... OptM3 with GC (2021)
Angular Grid (max. ang.)         AngularGrid ... 1 (Lebedev-50)
Angular grid pruning method      GridPruning ... 4 (adaptive)
Weight generation scheme         WeightScheme... Becke
Basis function cutoff            BFCut       ... 1.0000e-11
Integration weight cutoff        WCut        ... 1.0000e-14
Angular grids for H and He will be reduced by one unit
Partially contracted basis set               ... on
Rotationally invariant grid construction     ... off

Total number of grid points                  ...     6217
Total number of batches                      ...      102
Average number of points per batch           ...       60
Average number of grid points per atom       ...      691
UseSFitting                                  ... on

GRIDX 2
-------
General Integration Accuracy     IntAcc      ... 4.020
Radial Grid Type                 RadialGrid  ... OptM3 with GC (2021)
Angular Grid (max. ang.)         AngularGrid ... 2 (Lebedev-110)
Angular grid pruning method      GridPruning ... 4 (adaptive)
Weight generation scheme         WeightScheme... Becke
Basis function cutoff            BFCut       ... 1.0000e-11
Integration weight cutoff        WCut        ... 1.0000e-14
Angular grids for H and He will be reduced by one unit
Partially contracted basis set               ... on
Rotationally invariant grid construction     ... off

Total number of grid points                  ...    14663
Total number of batches                      ...      233
Average number of points per batch           ...       62
Average number of grid points per atom       ...     1629
UseSFitting                                  ... on

GRIDX 3
-------
General Integration Accuracy     IntAcc      ... 4.338
Radial Grid Type                 RadialGrid  ... OptM3 with GC (2021)
Angular Grid (max. ang.)         AngularGrid ... 3 (Lebedev-194)
Angular grid pruning method      GridPruning ... 4 (adaptive)
Weight generation scheme         WeightScheme... Becke
Basis function cutoff            BFCut       ... 1.0000e-11
Integration weight cutoff        WCut        ... 1.0000e-14
Angular grids for H and He will be reduced by one unit
Partially contracted basis set               ... on
Rotationally invariant grid construction     ... off

Total number of grid points                  ...    32790
Total number of batches                      ...      517
Average number of points per batch           ...       63
Average number of grid points per atom       ...     3643
UseSFitting                                  ... on

Time for X-Grid setup             =    0.211 sec

--------------
SCF ITERATIONS
--------------
ITER       Energy         Delta-E        Max-DP      RMS-DP      [F,P]     Damp
               ***  Starting incremental Fock matrix formation  ***
  0  -1485.9657976501   0.00000000000022.92681291  0.33603693  1.5455963 0.7000
  1  -1501.7357945315 -15.769996881355 6.85217133  0.12174541  1.2615303 0.7000
  2  -1513.0091495598 -11.273355028322 4.68568138  0.08556868  0.8114079 0.7000
  3  -1520.5603434979  -7.551193938139 3.27252209  0.06015558  0.5469257 0.7000
  4  -1525.9743603482  -5.414016850230 2.28647555  0.04211178  0.3755689 0.7000
  5  -1529.8279955867  -3.853635238554 1.60088754  0.02949239  0.2596707 0.7000
                               ***Turning on DIIS***
  6  -1532.5587497045  -2.730754117778 1.12267363  0.02067163  0.1792641 0.7000
  7  -1534.4878042046  -1.929054500107 0.78902730  0.01451825  0.1232129 0.7000
  8  -1535.8473557145  -1.359551509930 1.84734188  0.03396995  0.0850243 0.0000
  9  -1539.0511221464  -3.203766431833 0.00750302  0.00035063  0.0026618 0.0000
 10  -1539.0513768887  -0.000254742293 0.00379157  0.00016006  0.0013742 0.0000
 11  -1539.0514368960  -0.000060007345 0.00459532  0.00017313  0.0006671 0.0000
               *** Restarting incremental Fock matrix formation ***
                                   *** Resetting DIIS ***
 12  -1539.0507836027   0.000653293312 0.00270020  0.00016311  0.0014238 0.0000
 13  -1539.0508166069  -0.000033004191 0.00234508  0.00008990  0.0005903 0.0000
 14  -1539.0508203756  -0.000003768677 0.00138263  0.00004257  0.0009017 0.0000
 15  -1539.0508251201  -0.000004744569 0.00058472  0.00001906  0.0002133 0.0000
 16  -1539.0508257470  -0.000000626881 0.00042649  0.00001151  0.0001001 0.0000
 17  -1539.0508259413  -0.000000194243 0.00027714  0.00000755  0.0000561 0.0000
 18  -1539.0508260062  -0.000000064956 0.00017880  0.00000495  0.0000268 0.0000
 19  -1539.0508260262  -0.000000019993 0.00006438  0.00000187  0.0000086 0.0000
 20  -1539.0508260299  -0.000000003692 0.00001837  0.00000054  0.0000024 0.0000
 21  -1539.0508260312  -0.000000001254 0.00000757  0.00000028  0.0000018 0.0000
 22  -1539.0508260302   0.000000000964 0.00000405  0.00000013  0.0000015 0.0000
                            ***DIIS convergence achieved***

               *****************************************************
               *                     SUCCESS                       *
               *           SCF CONVERGED AFTER  23 CYCLES          *
               *****************************************************

Old exchange energy                            =    -42.126619978 Eh
New exchange energy                            =    -42.126545536 Eh
Exchange energy change after final integration =      0.000074442 Eh
Total energy after final integration           =  -1539.050751589 Eh
Final COS-X integration done in                =     0.860 sec

----------------
TOTAL SCF ENERGY
----------------

Total Energy       :        -1539.05075159 Eh          -41879.70007 eV

Components:
Nuclear Repulsion  :          459.21364956 Eh           12495.83868 eV
Electronic Energy  :        -1998.26440115 Eh          -54375.53875 eV
One Electron Energy:        -3099.95059717 Eh          -84353.94422 eV
Two Electron Energy:         1101.68619602 Eh           29978.40547 eV
Max COSX asymmetry :            0.00000586 Eh               0.00016 eV

Virial components:
Potential Energy   :        -2997.28548328 Eh          -81560.28444 eV
Kinetic Energy     :         1458.23473169 Eh           39680.58437 eV
Virial Ratio       :            2.05542045


DFT components:
N(Alpha)           :       39.999988972477 electrons
N(Beta)            :       39.999988972477 electrons
N(Total)           :       79.999977944953 electrons
E(X)               :      -56.399769784655 Eh       
E(C)               :       -4.035268520469 Eh       
E(XC)              :      -60.435038305124 Eh       
DFET-embed. en.    :        0.000000000000 Eh       

---------------
SCF CONVERGENCE
---------------

  Last Energy change         ...   -1.0095e-09  Tolerance :   1.0000e-08
  Last MAX-Density change    ...    0.0000e+00  Tolerance :   1.0000e-07
  Last RMS-Density change    ...    0.0000e+00  Tolerance :   5.0000e-09
  Last DIIS Error            ...    4.1129e-07  Tolerance :   5.0000e-07

             **** THE GBW FILE WAS UPDATED (reaction-6-rct-pbeh3c-orca_opt.gbw) ****
             **** DENSITY reaction-6-rct-pbeh3c-orca_opt.scfp WAS UPDATED ****
             **** ENERGY FILE WAS UPDATED (reaction-6-rct-pbeh3c-orca_opt.en.tmp) ****
             **** THE GBW FILE WAS UPDATED (reaction-6-rct-pbeh3c-orca_opt.gbw) ****
             **** DENSITY reaction-6-rct-pbeh3c-orca_opt.scfp WAS UPDATED ****
----------------
ORBITAL ENERGIES
----------------

  NO   OCC          E(Eh)            E(eV) 
   0   2.0000    -102.105459     -2778.4308 
   1   2.0000    -102.084757     -2777.8675 
   2   2.0000    -102.084645     -2777.8644 
   3   2.0000     -10.337757      -281.3047 
   4   2.0000      -9.570371      -260.4230 
   5   2.0000      -9.549326      -259.8504 
   6   2.0000      -9.549150      -259.8456 
   7   2.0000      -7.257652      -197.4908 
   8   2.0000      -7.250515      -197.2965 
   9   2.0000      -7.250134      -197.2862 
  10   2.0000      -7.235227      -196.8805 
  11   2.0000      -7.235053      -196.8758 
  12   2.0000      -7.230254      -196.7452 
  13   2.0000      -7.230152      -196.7424 
  14   2.0000      -7.230066      -196.7401 
  15   2.0000      -7.230012      -196.7386 
  16   2.0000      -3.940649      -107.2305 
  17   2.0000      -2.160523       -58.7908 
  18   2.0000      -2.153793       -58.6077 
  19   2.0000      -2.117539       -57.6212 
  20   2.0000      -0.707382       -19.2488 
  21   2.0000      -0.691377       -18.8133 
  22   2.0000      -0.683431       -18.5971 
  23   2.0000      -0.674270       -18.3478 
  24   2.0000      -0.395180       -10.7534 
  25   2.0000      -0.361762        -9.8441 
  26   2.0000      -0.358841        -9.7646 
  27   2.0000      -0.287662        -7.8277 
  28   2.0000      -0.275264        -7.4903 
  29   2.0000      -0.263558        -7.1718 
  30   2.0000      -0.231246        -6.2925 
  31   2.0000      -0.230500        -6.2722 
  32   2.0000      -0.200286        -5.4500 
  33   2.0000      -0.178687        -4.8623 
  34   2.0000      -0.173632        -4.7248 
  35   2.0000      -0.151339        -4.1181 
  36   2.0000      -0.143120        -3.8945 
  37   2.0000      -0.133505        -3.6329 
  38   2.0000      -0.122818        -3.3420 
  39   2.0000      -0.110718        -3.0128 
  40   0.0000       0.087199         2.3728 
  41   0.0000       0.201055         5.4710 
  42   0.0000       0.207696         5.6517 
  43   0.0000       0.261900         7.1267 
  44   0.0000       0.276395         7.5211 
  45   0.0000       0.282006         7.6738 
  46   0.0000       0.314738         8.5645 
  47   0.0000       0.320987         8.7345 
  48   0.0000       0.377797        10.2804 
  49   0.0000       0.400430        10.8962 
  50   0.0000       0.539285        14.6747 
  51   0.0000       0.561130        15.2691 
  52   0.0000       0.569134        15.4869 
  53   0.0000       0.611505        16.6399 
  54   0.0000       0.663503        18.0548 
  55   0.0000       0.676219        18.4009 
  56   0.0000       0.708531        19.2801 
  57   0.0000       0.777197        21.1486 
  58   0.0000       0.801539        21.8110 
  59   0.0000       0.852375        23.1943 
  60   0.0000       0.881605        23.9897 
  61   0.0000       0.932673        25.3793 
  62   0.0000       0.945463        25.7274 
  63   0.0000       0.955362        25.9967 
  64   0.0000       0.969663        26.3859 
  65   0.0000       0.972695        26.4684 
  66   0.0000       1.009395        27.4670 
  67   0.0000       1.028963        27.9995 
  68   0.0000       1.029216        28.0064 
  69   0.0000       1.038490        28.2588 
  70   0.0000       1.042973        28.3807 
  71   0.0000       1.058441        28.8016 
  72   0.0000       1.072997        29.1977 
  73   0.0000       1.081469        29.4283 
  74   0.0000       1.088293        29.6140 
  75   0.0000       1.089876        29.6570 
  76   0.0000       1.097618        29.8677 
  77   0.0000       1.117432        30.4069 
  78   0.0000       1.140926        31.0462 
  79   0.0000       1.147973        31.2379 
  80   0.0000       1.170081        31.8395 
  81   0.0000       1.183026        32.1918 
  82   0.0000       1.219808        33.1927 
  83   0.0000       1.238127        33.6911 
  84   0.0000       1.266977        34.4762 
  85   0.0000       1.275419        34.7059 
  86   0.0000       1.299547        35.3625 
  87   0.0000       1.312970        35.7277 
  88   0.0000       1.361782        37.0560 
  89   0.0000       1.427216        38.8365 
  90   0.0000       1.578916        42.9645 
  91   0.0000       1.588825        43.2341 
  92   0.0000       1.649379        44.8819 
  93   0.0000       1.655556        45.0500 
  94   0.0000       1.701849        46.3097 
  95   0.0000       1.712065        46.5877 
  96   0.0000       1.734759        47.2052 
  97   0.0000       1.740227        47.3540 
  98   0.0000       1.844213        50.1836 
  99   0.0000       1.909656        51.9644 
 100   0.0000       1.981512        53.9197 
 101   0.0000       2.029593        55.2280 
 102   0.0000       2.408908        65.5497 
 103   0.0000       2.428828        66.0918 
 104   0.0000       2.441825        66.4454 
 105   0.0000       2.560468        69.6739 
 106   0.0000      13.832132       376.3915 
 107   0.0000      51.222722      1393.8411 
 108   0.0000     282.826293      7696.0947 

                    ********************************
                    * MULLIKEN POPULATION ANALYSIS *
                    ********************************

-----------------------
MULLIKEN ATOMIC CHARGES
-----------------------
   0 Pt:    0.038720
   1 Cl:   -0.436283
   2 Cl:   -0.297021
   3 Cl:   -0.435430
   4 C :   -0.831595
   5 H :    0.229331
   6 H :    0.209706
   7 H :    0.258443
   8 H :    0.264130
Sum of atomic charges:   -1.0000000

--------------------------------
MULLIKEN REDUCED ORBITAL CHARGES
--------------------------------
  0 Pts       :     2.692562  s :     2.692562
      pz      :     2.124913  p :     6.407465
      px      :     2.135310
      py      :     2.147242
      dz2     :     1.435184  d :     8.836774
      dxz     :     1.919214
      dyz     :     1.796877
      dx2y2   :     1.790645
      dxy     :     1.894854
      f0      :     0.005680  f :     0.024479
      f+1     :     0.004197
      f-1     :     0.005013
      f+2     :     0.002247
      f-2     :     0.001764
      f+3     :     0.002610
      f-3     :     0.002969
  1 Cls       :     5.940519  s :     5.940519
      pz      :     3.675548  p :    11.477203
      px      :     3.918377
      py      :     3.883278
      dz2     :     0.007044  d :     0.018561
      dxz     :     0.004098
      dyz     :     0.005537
      dx2y2   :     0.000981
      dxy     :     0.000901
  2 Cls       :     5.940058  s :     5.940058
      pz      :     3.926757  p :    11.330604
      px      :     3.519483
      py      :     3.884364
      dz2     :     0.003279  d :     0.026360
      dxz     :     0.006448
      dyz     :     0.001383
      dx2y2   :     0.007834
      dxy     :     0.007416
  3 Cls       :     5.940409  s :     5.940409
      pz      :     3.635865  p :    11.476556
      px      :     3.934553
      py      :     3.906138
      dz2     :     0.006886  d :     0.018466
      dxz     :     0.004256
      dyz     :     0.005706
      dx2y2   :     0.000833
      dxy     :     0.000786
  4 C s       :     3.470335  s :     3.470335
      pz      :     1.136622  p :     3.330589
      px      :     1.097890
      py      :     1.096078
      dz2     :     0.009877  d :     0.030671
      dxz     :     0.003979
      dyz     :     0.003599
      dx2y2   :     0.007203
      dxy     :     0.006014
  5 H s       :     0.770669  s :     0.770669
  6 H s       :     0.790294  s :     0.790294
  7 H s       :     0.741557  s :     0.741557
  8 H s       :     0.735870  s :     0.735870


                     *******************************
                     * LOEWDIN POPULATION ANALYSIS *
                     *******************************

----------------------
LOEWDIN ATOMIC CHARGES
----------------------
   0 Pt:   -0.954852
   1 Cl:   -0.132521
   2 Cl:    0.021082
   3 Cl:   -0.134401
   4 C :   -0.404128
   5 H :    0.134190
   6 H :    0.159254
   7 H :    0.151392
   8 H :    0.159984

-------------------------------
LOEWDIN REDUCED ORBITAL CHARGES
-------------------------------
  0 Pts       :     2.717709  s :     2.717709
      pz      :     2.329834  p :     6.823989
      px      :     2.270300
      py      :     2.223854
      dz2     :     1.603414  d :     9.370726
      dxz     :     2.028960
      dyz     :     1.901286
      dx2y2   :     1.875762
      dxy     :     1.961303
      f0      :     0.010157  f :     0.042428
      f+1     :     0.007000
      f-1     :     0.009220
      f+2     :     0.003806
      f-2     :     0.002913
      f+3     :     0.004422
      f-3     :     0.004910
  1 Cls       :     5.744974  s :     5.744974
      pz      :     3.646170  p :    11.366223
      px      :     3.877216
      py      :     3.842836
      dz2     :     0.008060  d :     0.021324
      dxz     :     0.004885
      dyz     :     0.006240
      dx2y2   :     0.001104
      dxy     :     0.001035
  2 Cls       :     5.721893  s :     5.721893
      pz      :     3.878391  p :    11.226613
      px      :     3.508265
      py      :     3.839957
      dz2     :     0.003772  d :     0.030412
      dxz     :     0.007759
      dyz     :     0.001532
      dx2y2   :     0.008883
      dxy     :     0.008466
  3 Cls       :     5.745196  s :     5.745196
      pz      :     3.616645  p :    11.367988
      px      :     3.890810
      py      :     3.860533
      dz2     :     0.007688  d :     0.021216
      dxz     :     0.005185
      dyz     :     0.006547
      dx2y2   :     0.000896
      dxy     :     0.000901
  4 C s       :     2.985977  s :     2.985977
      pz      :     1.144081  p :     3.367064
      px      :     1.108125
      py      :     1.114858
      dz2     :     0.016121  d :     0.051087
      dxz     :     0.006463
      dyz     :     0.006108
      dx2y2   :     0.012117
      dxy     :     0.010278
  5 H s       :     0.865810  s :     0.865810
  6 H s       :     0.840746  s :     0.840746
  7 H s       :     0.848608  s :     0.848608
  8 H s       :     0.840016  s :     0.840016


                      *****************************
                      * MAYER POPULATION ANALYSIS *
                      *****************************

  NA   - Mulliken gross atomic population
  ZA   - Total nuclear charge
  QA   - Mulliken gross atomic charge
  VA   - Mayer's total valence
  BVA  - Mayer's bonded valence
  FA   - Mayer's free valence

  ATOM       NA         ZA         QA         VA         BVA        FA
  0 Pt    17.9613    18.0000     0.0387     2.8996     2.8996    -0.0000
  1 Cl    17.4363    17.0000    -0.4363     0.9510     0.9510     0.0000
  2 Cl    17.2970    17.0000    -0.2970     1.1113     1.1113    -0.0000
  3 Cl    17.4354    17.0000    -0.4354     0.9518     0.9518    -0.0000
  4 C      6.8316     6.0000    -0.8316     3.7196     3.7196    -0.0000
  5 H      0.7707     1.0000     0.2293     0.9080     0.9080     0.0000
  6 H      0.7903     1.0000     0.2097     0.8975     0.8975     0.0000
  7 H      0.7416     1.0000     0.2584     0.8972     0.8972    -0.0000
  8 H      0.7359     1.0000     0.2641     0.8888     0.8888     0.0000

  Mayer bond orders larger than 0.100000
B(  0-Pt,  1-Cl) :   0.8023 B(  0-Pt,  2-Cl) :   1.0021 B(  0-Pt,  3-Cl) :   0.7982 
B(  0-Pt,  4-C ) :   0.1542 B(  0-Pt,  6-H ) :   0.1369 B(  1-Cl,  3-Cl) :   0.1147 
B(  4-C ,  5-H ) :   0.9211 B(  4-C ,  6-H ) :   0.7747 B(  4-C ,  7-H ) :   0.9034 
B(  4-C ,  8-H ) :   0.9054 

-------
TIMINGS
-------

Total SCF time: 0 days 0 hours 0 min 10 sec 

Total time                  ....      10.722 sec
Sum of individual times     ....      10.536 sec  ( 98.3%)

Fock matrix formation       ....      10.070 sec  ( 93.9%)
  Split-RI-J                ....       0.995 sec  (  9.9% of F)
  Chain of spheres X        ....       7.797 sec  ( 77.4% of F)
  XC integration            ....       1.184 sec  ( 11.8% of F)
    Basis function eval.    ....       0.486 sec  ( 41.1% of XC)
    Density eval.           ....       0.205 sec  ( 17.3% of XC)
    XC-Functional eval.     ....       0.184 sec  ( 15.5% of XC)
    XC-Potential eval.      ....       0.226 sec  ( 19.1% of XC)
Diagonalization             ....       0.071 sec  (  0.7%)
Density matrix formation    ....       0.004 sec  (  0.0%)
Population analysis         ....       0.005 sec  (  0.0%)
Initial guess               ....       0.003 sec  (  0.0%)
Orbital Transformation      ....       0.000 sec  (  0.0%)
Orbital Orthonormalization  ....       0.000 sec  (  0.0%)
DIIS solution               ....       0.060 sec  (  0.6%)
Grid generation             ....       0.325 sec  (  3.0%)

Maximum memory used throughout the entire SCF-calculation: 62.2 MB


-------------------------------------------------------------------------------
                          DFT DISPERSION CORRECTION                            
                                                                               
                              DFTD3 V3.1  Rev 1                                
                          USING Becke-Johnson damping                          
-------------------------------------------------------------------------------
The PBEh-3c composite method is recognized
Using three-body term ABC
Active option DFTDOPT                   ...         4   

molecular C6(AA) [au] = 3394.981275 


            DFT-D V3
 parameters
 s6 scaling factor         :     1.0000 
 a1 scaling factor         :     0.4860 
 s8 scaling factor         :     0.0000 
 a2 scaling factor         :     4.5000 
 Damping factor alpha9(ATM):    16.0000 
 ad hoc parameters k1-k3   :    16.0000     1.3333    -4.0000 

 Edisp/kcal,au: -3.157370913100  -0.005031590290 
 E6   /kcal   :  -3.164394753 
 E8   /kcal   :  -0.000000000 
 E6(ABC)      :   0.007023840 
 % E8         :   0.000000000 
 % E6(ABC)    :  -0.222458502 

-------------------------   ----------------
Dispersion correction           -0.005031590
-------------------------   ----------------

 ** NOTE ** -> element pt will be treated as ni
NOTIFICATION: Different basis set in ORCA and otool_gcp:
ORCA: 109  gCP: 108 
If you are NOT using ECPs, check your basis set inputs!
------------------   -----------------
gCP correction             0.015967677
------------------   -----------------

-------------------------   --------------------
FINAL SINGLE POINT ENERGY     -1539.039815501716
-------------------------   --------------------



           ************************************************************
           *        Program running with 4 parallel MPI-processes     *
           *              working on a common directory               *
           ************************************************************
------------------------------------------------------------------------------
                         ORCA SCF GRADIENT CALCULATION
------------------------------------------------------------------------------

 ... reading COSX grid (gridx3)
Gradient of the Kohn-Sham DFT energy:
Kohn-Sham wavefunction type      ... RKS
Hartree-Fock exchange scaling    ...    0.420
Number of operators              ...    1
Number of atoms                  ...    9
Basis set dimensions             ...  109
Integral neglect threshold       ... 2.5e-11
Integral primitive cutoff        ... 2.5e-12
SHARK Integral package           ... ON

Nuc. rep. gradient       (SHARK) ... done (  0.0 sec)
HCore & Overlap gradient (SHARK) ... done (  0.0 sec)
ECP gradient             (SHARK) ... done (  0.3 sec)
RI-J gradient            (SHARK) ... done (  0.2 sec)
COSX-gradient                    ... done (  1.0 sec)
Exchange-correlation gradient    ... done
Dispersion correction            ... done
gCP correction                   ... done

------------------
CARTESIAN GRADIENT
------------------

   1   Pt  :   -0.000315920   -0.006352571    0.003372020
   2   Cl  :   -0.001125754   -0.002640286   -0.006292946
   3   Cl  :    0.012449196    0.005002586   -0.004629587
   4   Cl  :   -0.000051508    0.002009982    0.006526918
   5   C   :    0.006384197   -0.009493139    0.004603980
   6   H   :    0.001140738    0.004446373   -0.004268821
   7   H   :   -0.020598442    0.003421350    0.000264860
   8   H   :    0.001713022    0.002049884   -0.000524693
   9   H   :   -0.000632992    0.000385464   -0.000009681

Difference to translation invariance:
           :   -0.0010374622   -0.0011703569   -0.0009579486

Difference to rotation invariance:
           :    0.0027665357   -0.0032137426    0.0024921526

Norm of the cartesian gradient     ...    0.0313552421
RMS gradient                       ...    0.0060343192
MAX gradient                       ...    0.0205984418

-------
TIMINGS
-------

Total SCF gradient time            ...        2.035 sec

One electron gradient       ....       0.318 sec  ( 15.6%)
RI-J Coulomb gradient       ....       0.220 sec  ( 10.8%)
COSX gradient               ....       0.990 sec  ( 48.7%)
XC gradient                 ....       0.210 sec  ( 10.3%)

Maximum memory used throughout the entire SCFGRAD-calculation: 37.0 MB
------------------------------------------------------------------------------
                         ORCA GEOMETRY RELAXATION STEP
------------------------------------------------------------------------------

Reading the OPT-File                    .... done
Getting information on internals        .... done
Copying old internal coords+grads       .... done
Making the new internal coordinates     .... (new redundants).... done
Validating the new internal coordinates .... (new redundants).... done
Calculating the B-matrix                .... done
Calculating the G,G- and P matrices     .... done
Transforming gradient to internals      .... done
Projecting the internal gradient        .... done
Number of atoms                         ....   9
Number of internal coordinates          ....  27
Current Energy                          .... -1539.039815502 Eh
Current gradient norm                   ....     0.031355242 Eh/bohr
Maximum allowed component of the step   ....  0.300
Current trust radius                    ....  0.300
Evaluating the initial hessian          ....  (Almloef) done
Projecting the Hessian                  .... done
Forming the augmented Hessian           .... done
Diagonalizing the augmented Hessian     .... done
Last element of RFO vector              ....  0.951857621
Lowest eigenvalues of augmented Hessian:
 -0.006852320  0.001907757  0.008106228  0.009430631  0.038865999
Length of the computed step             ....  0.322044472
Warning: the length of the step is outside the trust region - taking restricted step instead
The input lambda is                     ....    -0.006852
   iter:   1  x=   -0.010296  g=    3.982435 f(x)=     0.013713
   iter:   2  x=   -0.010768  g=    3.169376 f(x)=     0.001496
   iter:   3  x=   -0.010775  g=    3.080261 f(x)=     0.000021
   iter:   4  x=   -0.010775  g=    3.078993 f(x)=     0.000000
   iter:   5  x=   -0.010775  g=    3.078992 f(x)=     0.000000
The output lambda is                    ....    -0.010775 (5 iterations)
The final length of the internal step   ....  0.300000000
Converting the step to cartesian space:
 Initial RMS(Int)=    0.0577350269
Transforming coordinates:
 Iter   0:  RMS(Cart)=    0.0648920455 RMS(Int)=    0.0534164753
 Iter   1:  RMS(Cart)=    0.0082559893 RMS(Int)=    0.0058335141
 Iter   2:  RMS(Cart)=    0.0000715152 RMS(Int)=    0.0001129164
 Iter   3:  RMS(Cart)=    0.0000105293 RMS(Int)=    0.0000194852
 Iter   4:  RMS(Cart)=    0.0000017337 RMS(Int)=    0.0000031782
 Iter   5:  RMS(Cart)=    0.0000002792 RMS(Int)=    0.0000005099
 Iter   6:  RMS(Cart)=    0.0000000447 RMS(Int)=    0.0000000815
done
Storing new coordinates                 .... done

                                .--------------------.
          ----------------------|Geometry convergence|-------------------------
          Item                value                   Tolerance       Converged
          ---------------------------------------------------------------------
          RMS gradient        0.0048844249            0.0001000000      NO
          MAX gradient        0.0142190770            0.0003000000      NO
          RMS step            0.0577350269            0.0020000000      NO
          MAX step            0.2302767878            0.0040000000      NO
          ........................................................
          Max(Bonds)      0.1219      Max(Angles)    1.92
          Max(Dihed)        1.05      Max(Improp)    0.00
          ---------------------------------------------------------------------

The optimization has not yet converged - more geometry cycles are needed


    ---------------------------------------------------------------------------
                         Redundant Internal Coordinates
                            (Angstroem and degrees)

        Definition                    Value    dE/dq     Step     New-Value
    ----------------------------------------------------------------------------
     1. B(Cl  1,Pt  0)                2.2997 -0.006673  0.0442    2.3439   
     2. B(Cl  2,Pt  0)                2.2122 -0.014219  0.0710    2.2832   
     3. B(Cl  3,Pt  0)                2.3007 -0.007038  0.0468    2.3475   
     4. B(H   5,C   4)                1.0850 -0.000802  0.0011    1.0861   
     5. B(H   6,C   4)                1.1156  0.003411 -0.0053    1.1103   
     6. B(H   6,Pt  0)                1.8043 -0.010850  0.1219    1.9261   
     7. B(H   7,C   4)                1.0844  0.000229 -0.0003    1.0840   
     8. B(H   8,C   4)                1.0853  0.000588 -0.0008    1.0845   
     9. A(Cl  1,Pt  0,H   6)           86.73 -0.000149   -0.09     86.64   
    10. A(Cl  1,Pt  0,Cl  3)          174.71  0.000495   -0.12    174.59   
    11. A(Cl  3,Pt  0,H   6)           88.10  0.000654   -0.03     88.06   
    12. A(Cl  2,Pt  0,H   6)          171.10  0.005014   -1.32    169.79   
    13. A(Cl  1,Pt  0,Cl  2)           92.60  0.000628   -0.25     92.36   
    14. A(Cl  2,Pt  0,Cl  3)           92.68 -0.001155    0.37     93.05   
    15. A(H   5,C   4,H   8)          109.64 -0.002556    0.44    110.08   
    16. A(H   6,C   4,H   7)          108.94  0.002539   -0.46    108.49   
    17. A(H   5,C   4,H   7)          110.55 -0.004394    0.77    111.33   
    18. A(H   7,C   4,H   8)          110.40 -0.002133    0.51    110.91   
    19. A(H   6,C   4,H   8)          110.18 -0.002511    0.52    110.70   
    20. A(H   5,C   4,H   6)          107.07  0.009381   -1.85    105.21   
    21. A(Pt  0,H   6,C   4)          137.96  0.007416   -1.92    136.04   
    22. D(C   4,H   6,Pt  0,Cl  2)    177.33 -0.000253    0.44    177.76   
    23. D(C   4,H   6,Pt  0,Cl  3)     82.14  0.000312   -1.03     81.10   
    24. D(Pt  0,H   6,C   4,H   5)    161.68  0.000119   -0.10    161.58   
    25. D(Pt  0,H   6,C   4,H   7)    -78.74  0.001614   -0.48    -79.22   
    26. D(Pt  0,H   6,C   4,H   8)     42.51 -0.000968    0.18     42.69   
    27. D(C   4,H   6,Pt  0,Cl  1)    -96.74  0.000306   -1.05    -97.79   
    ----------------------------------------------------------------------------

         *************************************************************
         *                GEOMETRY OPTIMIZATION CYCLE   2            *
         *************************************************************
---------------------------------
CARTESIAN COORDINATES (ANGSTROEM)
---------------------------------
  Pt    -1.157603   -0.559249    0.373940
  Cl    -0.818120    0.283685    2.534527
  Cl    -3.242797   -1.326524    0.899699
  Cl    -1.297650   -1.323037   -1.841393
  C      1.304153    0.604094   -0.405693
  H      2.313660    0.476641   -0.025910
  H      0.710888   -0.207175    0.066060
  H      1.268588    0.474838   -1.481408
  H      0.918890    1.576717   -0.119821

----------------------------
CARTESIAN COORDINATES (A.U.)
----------------------------
  NO LB      ZA    FRAG     MASS         X           Y           Z
   0 Pt   18.0000*   0   195.090   -2.187552   -1.056827    0.706643
   1 Cl   17.0000    0    35.453   -1.546022    0.536086    4.789562
   2 Cl   17.0000    0    35.453   -6.127998   -2.506767    1.700185
   3 Cl   17.0000    0    35.453   -2.452203   -2.500177   -3.479728
   4 C     6.0000    0    12.011    2.464492    1.141572   -0.766648
   5 H     1.0000    0     1.008    4.372183    0.900721   -0.048964
   6 H     1.0000    0     1.008    1.343384   -0.391504    0.124835
   7 H     1.0000    0     1.008    2.397284    0.897314   -2.799456
   8 H     1.0000    0     1.008    1.736451    2.979563   -0.226429
* core charge reduced due to ECP

--------------------------------
INTERNAL COORDINATES (ANGSTROEM)
--------------------------------
 Pt     0   0   0     0.000000000000     0.00000000     0.00000000
 Cl     1   0   0     2.343911919164     0.00000000     0.00000000
 Cl     1   2   0     2.283236668758    92.34207413     0.00000000
 Cl     1   2   3     2.347484569818   174.58982952   178.37026579
 C      1   2   3     2.832213444432    88.86167276   174.52740554
 H      5   1   2     1.086086119288   131.56367713    57.53335413
 H      5   1   2     1.110257069415    28.16896344    81.59236952
 H      5   1   2     1.084037182167   101.28368355   189.77912083
 H      5   1   2     1.084501882983    89.25750667   300.96118803

---------------------------
INTERNAL COORDINATES (A.U.)
---------------------------
 Pt     0   0   0     0.000000000000     0.00000000     0.00000000
 Cl     1   0   0     4.429351609255     0.00000000     0.00000000
 Cl     1   2   0     4.314692002880    92.34207413     0.00000000
 Cl     1   2   3     4.436102940563   174.58982952   178.37026579
 C      1   2   3     5.352107762786    88.86167276   174.52740554
 H      5   1   2     2.052405323308   131.56367713    57.53335413
 H      5   1   2     2.098081799445    28.16896344    81.59236952
 H      5   1   2     2.048533393284   101.28368355   189.77912083
 H      5   1   2     2.049411550559    89.25750667   300.96118803



           ************************************************************
           *        Program running with 4 parallel MPI-processes     *
           *              working on a common directory               *
           ************************************************************
------------------------------------------------------------------------------
                   ___                                                        
                  /   \      - P O W E R E D   B Y -                         
                 /     \                                                     
                 |  |  |   _    _      __       _____    __    __             
                 |  |  |  | |  | |    /  \     |  _  \  |  |  /  |          
                  \  \/   | |  | |   /    \    | | | |  |  | /  /          
                 / \  \   | |__| |  /  /\  \   | |_| |  |  |/  /          
                |  |  |   |  __  | /  /__\  \  |    /   |      \           
                |  |  |   | |  | | |   __   |  |    \   |  |\   \          
                \     /   | |  | | |  |  |  |  | |\  \  |  | \   \       
                 \___/    |_|  |_| |__|  |__|  |_| \__\ |__|  \__/        
                                                                              
                      - O R C A' S   B I G   F R I E N D -                    
                                      &                                       
                       - I N T E G R A L  F E E D E R -                       
                                                                              
 v1 FN, 2020, v2 2021                                                         
------------------------------------------------------------------------------


Reading SHARK input file reaction-6-rct-pbeh3c-orca_opt.SHARKINP.tmp ... ok
----------------------
SHARK INTEGRAL PACKAGE
----------------------

Number of atoms                             ...      9
Number of basis functions                   ...    109
Number of shells                            ...     51
Maximum angular momentum                    ...      3
Integral batch strategy                     ... SHARK/LIBINT Hybrid
RI-J (if used) integral strategy            ... SPLIT-RIJ (Revised 2003 algorithm where possible)
Printlevel                                  ...      1
Contraction scheme used                     ... SEGMENTED contraction
Coulomb Range Separation                    ... NOT USED
Exchange Range Separation                   ... NOT USED
Finite Nucleus Model                        ... NOT USED
Auxiliary Coulomb fitting basis             ... AVAILABLE
   # of basis functions in Aux-J            ...    335
   # of shells in Aux-J                     ...    109
   Maximum angular momentum in Aux-J        ...      4
Auxiliary J/K fitting basis                 ... NOT available
Auxiliary Correlation fitting basis         ... NOT available
Auxiliary 'external' fitting basis          ... NOT available
Integral threshold                          ...     2.500000e-11
Primitive cut-off                           ...     2.500000e-12
Primitive pair pre-selection threshold      ...     2.500000e-12

Calculating pre-screening integrals         ... done (  0.0 sec) Dimension = 51
Organizing shell pair data                  ... done (  0.0 sec)
Shell pair information
Total number of shell pairs                 ...      1326
Shell pairs after pre-screening             ...      1176
Total number of primitive shell pairs       ...      5360
Primitive shell pairs kept                  ...      3409
          la=0 lb=0:    393 shell pairs
          la=1 lb=0:    366 shell pairs
          la=1 lb=1:     99 shell pairs
          la=2 lb=0:    167 shell pairs
          la=2 lb=1:     80 shell pairs
          la=2 lb=2:     20 shell pairs
          la=3 lb=0:     30 shell pairs
          la=3 lb=1:     14 shell pairs
          la=3 lb=2:      6 shell pairs
          la=3 lb=3:      1 shell pairs

Calculating one electron integrals          ... done (  0.0 sec)
Calculating ECP integrals                   ... done (  0.1 sec)
Calculating RI/J V-Matrix + Cholesky decomp.... done (  0.0 sec)
Calculating Nuclear repulsion               ... done (  0.0 sec) ENN=    447.913151290619 Eh

SHARK setup successfully completed in   0.3 seconds

Maximum memory used throughout the entire GTOINT-calculation: 14.1 MB


           ************************************************************
           *        Program running with 4 parallel MPI-processes     *
           *              working on a common directory               *
           ************************************************************

Diagonalization of the overlap matrix:
Smallest eigenvalue                        ... 9.278e-03
Time for diagonalization                   ...    0.003 sec
Threshold for overlap eigenvalues          ... 1.000e-08
Number of eigenvalues below threshold      ... 0
Time for construction of square roots      ...    0.001 sec
Total time needed                          ...    0.005 sec

-------------------
DFT GRID GENERATION
-------------------

General Integration Accuracy     IntAcc      ... 4.159
Radial Grid Type                 RadialGrid  ... OptM3 with GC (2021)
Angular Grid (max. ang.)         AngularGrid ... 3 (Lebedev-194)
Angular grid pruning method      GridPruning ... 4 (adaptive)
Weight generation scheme         WeightScheme... Becke
Basis function cutoff            BFCut       ... 1.0000e-11
Integration weight cutoff        WCut        ... 1.0000e-14
Angular grids for H and He will be reduced by one unit
Partially contracted basis set               ... off
Rotationally invariant grid construction     ... off

Total number of grid points                  ...    27604
Total number of batches                      ...      436
Average number of points per batch           ...       63
Average number of grid points per atom       ...     3067
Time for grid setup =    0.112 sec

--------------------
COSX GRID GENERATION
--------------------

GRIDX 1
-------
General Integration Accuracy     IntAcc      ... 3.816
Radial Grid Type                 RadialGrid  ... OptM3 with GC (2021)
Angular Grid (max. ang.)         AngularGrid ... 1 (Lebedev-50)
Angular grid pruning method      GridPruning ... 4 (adaptive)
Weight generation scheme         WeightScheme... Becke
Basis function cutoff            BFCut       ... 1.0000e-11
Integration weight cutoff        WCut        ... 1.0000e-14
Angular grids for H and He will be reduced by one unit
Partially contracted basis set               ... on
Rotationally invariant grid construction     ... off

Total number of grid points                  ...     6226
Total number of batches                      ...      102
Average number of points per batch           ...       61
Average number of grid points per atom       ...      692
UseSFitting                                  ... on

GRIDX 2
-------
General Integration Accuracy     IntAcc      ... 4.020
Radial Grid Type                 RadialGrid  ... OptM3 with GC (2021)
Angular Grid (max. ang.)         AngularGrid ... 2 (Lebedev-110)
Angular grid pruning method      GridPruning ... 4 (adaptive)
Weight generation scheme         WeightScheme... Becke
Basis function cutoff            BFCut       ... 1.0000e-11
Integration weight cutoff        WCut        ... 1.0000e-14
Angular grids for H and He will be reduced by one unit
Partially contracted basis set               ... on
Rotationally invariant grid construction     ... off

Total number of grid points                  ...    14678
Total number of batches                      ...      234
Average number of points per batch           ...       62
Average number of grid points per atom       ...     1631
UseSFitting                                  ... on

GRIDX 3
-------
General Integration Accuracy     IntAcc      ... 4.338
Radial Grid Type                 RadialGrid  ... OptM3 with GC (2021)
Angular Grid (max. ang.)         AngularGrid ... 3 (Lebedev-194)
Angular grid pruning method      GridPruning ... 4 (adaptive)
Weight generation scheme         WeightScheme... Becke
Basis function cutoff            BFCut       ... 1.0000e-11
Integration weight cutoff        WCut        ... 1.0000e-14
Angular grids for H and He will be reduced by one unit
Partially contracted basis set               ... on
Rotationally invariant grid construction     ... off

Total number of grid points                  ...    32829
Total number of batches                      ...      518
Average number of points per batch           ...       63
Average number of grid points per atom       ...     3648
UseSFitting                                  ... on

Time for X-Grid setup             =    0.211 sec

--------------
SCF ITERATIONS
--------------
ITER       Energy         Delta-E        Max-DP      RMS-DP      [F,P]     Damp
               ***  Starting incremental Fock matrix formation  ***
  0  -1539.0494026924   0.000000000000 0.00440175  0.00020858  0.2944681 0.7000
  1  -1539.0500957263  -0.000693033880 0.00400761  0.00019918  0.2063047 0.7000
                               ***Turning on DIIS***
  2  -1539.0506209834  -0.000525257142 0.00312210  0.00016015  0.1444421 0.7000
  3  -1539.0510046644  -0.000383680955 0.00271298  0.00013043  0.1011301 0.7000
  4  -1539.0512838961  -0.000279231694 0.00757698  0.00034293  0.0707996 0.0000
  5  -1539.0519807181  -0.000696822045 0.00216514  0.00006739  0.0004448 0.0000
               *** Restarting incremental Fock matrix formation ***
                                   *** Resetting DIIS ***
  6  -1539.0519821545  -0.000001436398 0.00107152  0.00002963  0.0002478 0.0000
  7  -1539.0519835639  -0.000001409397 0.00061818  0.00001557  0.0001378 0.0000
  8  -1539.0519839550  -0.000000391031 0.00061476  0.00001448  0.0000828 0.0000
  9  -1539.0519841595  -0.000000204557 0.00019733  0.00000461  0.0000534 0.0000
 10  -1539.0519841933  -0.000000033770 0.00015582  0.00000360  0.0000225 0.0000
 11  -1539.0519842094  -0.000000016077 0.00003407  0.00000092  0.0000070 0.0000
                 **** Energy Check signals convergence ****

               *****************************************************
               *                     SUCCESS                       *
               *           SCF CONVERGED AFTER  12 CYCLES          *
               *****************************************************

Old exchange energy                            =    -42.106703245 Eh
New exchange energy                            =    -42.106594003 Eh
Exchange energy change after final integration =      0.000109242 Eh
Total energy after final integration           =  -1539.051874971 Eh
Final COS-X integration done in                =     0.841 sec
Total Energy       :        -1539.05187497 Eh          -41879.73064 eV
  Last Energy change         ...   -3.1807e-09  Tolerance :   1.0000e-08
  Last MAX-Density change    ...    0.0000e+00  Tolerance :   1.0000e-07
             **** THE GBW FILE WAS UPDATED (reaction-6-rct-pbeh3c-orca_opt.gbw) ****
             **** DENSITY reaction-6-rct-pbeh3c-orca_opt.scfp WAS UPDATED ****
             **** ENERGY FILE WAS UPDATED (reaction-6-rct-pbeh3c-orca_opt.en.tmp) ****
             **** THE GBW FILE WAS UPDATED (reaction-6-rct-pbeh3c-orca_opt.gbw) ****
             **** DENSITY reaction-6-rct-pbeh3c-orca_opt.scfp WAS UPDATED ****
Total SCF time: 0 days 0 hours 0 min 6 sec 

Maximum memory used throughout the entire SCF-calculation: 62.1 MB


-------------------------------------------------------------------------------
                          DFT DISPERSION CORRECTION                            
                                                                               
                              DFTD3 V3.1  Rev 1                                
                          USING Becke-Johnson damping                          
-------------------------------------------------------------------------------
-------------------------   ----------------
Dispersion correction           -0.004886564
-------------------------   ----------------

 ** NOTE ** -> element pt will be treated as ni
NOTIFICATION: Different basis set in ORCA and otool_gcp:
ORCA: 109  gCP: 108 
If you are NOT using ECPs, check your basis set inputs!
------------------   -----------------
gCP correction             0.014658748
------------------   -----------------

-------------------------   --------------------
FINAL SINGLE POINT ENERGY     -1539.042102787012
-------------------------   --------------------



           ************************************************************
           *        Program running with 4 parallel MPI-processes     *
           *              working on a common directory               *
           ************************************************************
------------------------------------------------------------------------------
                         ORCA SCF GRADIENT CALCULATION
------------------------------------------------------------------------------

 ... reading COSX grid (gridx3)
Gradient of the Kohn-Sham DFT energy:
Kohn-Sham wavefunction type      ... RKS
Hartree-Fock exchange scaling    ...    0.420
Number of operators              ...    1
Number of atoms                  ...    9
Basis set dimensions             ...  109
Integral neglect threshold       ... 2.5e-11
Integral primitive cutoff        ... 2.5e-12
SHARK Integral package           ... ON

Nuc. rep. gradient       (SHARK) ... done (  0.0 sec)
HCore & Overlap gradient (SHARK) ... done (  0.0 sec)
ECP gradient             (SHARK) ... done (  0.3 sec)
RI-J gradient            (SHARK) ... done (  0.2 sec)
COSX-gradient                    ... done (  1.0 sec)
Exchange-correlation gradient    ... done
Dispersion correction            ... done
gCP correction                   ... done

------------------
CARTESIAN GRADIENT
------------------

   1   Pt  :    0.013618478    0.001539942   -0.001592308
   2   Cl  :    0.000353313    0.002191978    0.006920241
   3   Cl  :   -0.010046362   -0.003539753    0.001794493
   4   Cl  :   -0.001310478   -0.002865744   -0.006947430
   5   C   :    0.004756274   -0.003880253    0.002055558
   6   H   :    0.000328458    0.001493540   -0.001723507
   7   H   :   -0.009257044    0.002773448   -0.000648035
   8   H   :    0.000639364    0.001104876   -0.000273664
   9   H   :   -0.000102805    0.000234220   -0.000257509

Difference to translation invariance:
           :   -0.0010208026   -0.0009477462   -0.0006721614

Difference to rotation invariance:
           :    0.0026567452   -0.0021705440    0.0018354504

Norm of the cartesian gradient     ...    0.0236837300
RMS gradient                       ...    0.0045579360
MAX gradient                       ...    0.0136184778

-------
TIMINGS
-------

Total SCF gradient time            ...        1.953 sec

One electron gradient       ....       0.293 sec  ( 15.0%)
RI-J Coulomb gradient       ....       0.211 sec  ( 10.8%)
COSX gradient               ....       0.952 sec  ( 48.8%)
XC gradient                 ....       0.208 sec  ( 10.6%)

Maximum memory used throughout the entire SCFGRAD-calculation: 37.0 MB
------------------------------------------------------------------------------
                         ORCA GEOMETRY RELAXATION STEP
------------------------------------------------------------------------------

Reading the OPT-File                    .... done
Getting information on internals        .... done
Copying old internal coords+grads       .... done
Making the new internal coordinates     .... (new redundants).... done
Validating the new internal coordinates .... (new redundants).... done
[...]
                                   *** Resetting DIIS ***
  3  -1539.0504950841  -0.000001159083 0.00008977  0.00000360  0.0001003 0.0000
  4  -1539.0504951223  -0.000000038222 0.00005701  0.00000187  0.0000191 0.0000
  5  -1539.0504951264  -0.000000004056 0.00001920  0.00000060  0.0000054 0.0000
  6  -1539.0504951268  -0.000000000384 0.00001972  0.00000058  0.0000038 0.0000
  7  -1539.0504951269  -0.000000000129 0.00001259  0.00000034  0.0000027 0.0000
  8  -1539.0504951263   0.000000000580 0.00000843  0.00000027  0.0000014 0.0000
                 **** Energy Check signals convergence ****

               *****************************************************
               *                     SUCCESS                       *
               *           SCF CONVERGED AFTER   9 CYCLES          *
               *****************************************************

Old exchange energy                            =    -42.113916383 Eh
New exchange energy                            =    -42.113864222 Eh
Exchange energy change after final integration =      0.000052162 Eh
Total energy after final integration           =  -1539.050442963 Eh
Final COS-X integration done in                =     0.859 sec

----------------
TOTAL SCF ENERGY
----------------

Total Energy       :        -1539.05044296 Eh          -41879.69168 eV

Components:
Nuclear Repulsion  :          435.38425095 Eh           11847.40778 eV
Electronic Energy  :        -1974.43469391 Eh          -53727.09945 eV
One Electron Energy:        -3051.85176348 Eh          -83045.10842 eV
Two Electron Energy:         1077.41706956 Eh           29318.00896 eV
Max COSX asymmetry :            0.00001274 Eh               0.00035 eV

Virial components:
Potential Energy   :        -2997.18645795 Eh          -81557.58983 eV
Kinetic Energy     :         1458.13601498 Eh           39677.89815 eV
Virial Ratio       :            2.05549169


DFT components:
N(Alpha)           :       40.000058824789 electrons
N(Beta)            :       40.000058824789 electrons
N(Total)           :       80.000117649579 electrons
E(X)               :      -56.381303653139 Eh       
E(C)               :       -4.020810920283 Eh       
E(XC)              :      -60.402114573422 Eh       
DFET-embed. en.    :        0.000000000000 Eh       

---------------
SCF CONVERGENCE
---------------

  Last Energy change         ...    1.6564e-09  Tolerance :   1.0000e-08
  Last MAX-Density change    ...    0.0000e+00  Tolerance :   1.0000e-07
  Last RMS-Density change    ...    0.0000e+00  Tolerance :   5.0000e-09
  Last DIIS Error            ...    6.7579e-07  Tolerance :   5.0000e-07

             **** THE GBW FILE WAS UPDATED (reaction-6-rct-pbeh3c-orca_opt.gbw) ****
             **** DENSITY reaction-6-rct-pbeh3c-orca_opt.scfp WAS UPDATED ****
             **** ENERGY FILE WAS UPDATED (reaction-6-rct-pbeh3c-orca_opt.en.tmp) ****
             **** THE GBW FILE WAS UPDATED (reaction-6-rct-pbeh3c-orca_opt.gbw) ****
             **** DENSITY reaction-6-rct-pbeh3c-orca_opt.scfp WAS UPDATED ****
----------------
ORBITAL ENERGIES
----------------

  NO   OCC          E(Eh)            E(eV) 
   0   2.0000    -102.123367     -2778.9181 
   1   2.0000    -102.097940     -2778.2262 
   2   2.0000    -102.097899     -2778.2251 
   3   2.0000     -10.308431      -280.5067 
   4   2.0000      -9.587369      -260.8856 
   5   2.0000      -9.562142      -260.1991 
   6   2.0000      -9.562062      -260.1969 
   7   2.0000      -7.275076      -197.9649 
   8   2.0000      -7.267307      -197.7535 
   9   2.0000      -7.267014      -197.7455 
  10   2.0000      -7.247857      -197.2242 
  11   2.0000      -7.247796      -197.2226 
  12   2.0000      -7.243395      -197.1028 
  13   2.0000      -7.243304      -197.1003 
  14   2.0000      -7.242845      -197.0878 
  15   2.0000      -7.242817      -197.0871 
  16   2.0000      -3.943035      -107.2954 
  17   2.0000      -2.160915       -58.8015 
  18   2.0000      -2.157858       -58.7183 
  19   2.0000      -2.119763       -57.6817 
  20   2.0000      -0.714225       -19.4351 
  21   2.0000      -0.696170       -18.9437 
  22   2.0000      -0.685093       -18.6423 
  23   2.0000      -0.670068       -18.2335 
  24   2.0000      -0.343525        -9.3478 
  25   2.0000      -0.341338        -9.2883 
  26   2.0000      -0.338689        -9.2162 
  27   2.0000      -0.294608        -8.0167 
  28   2.0000      -0.282072        -7.6756 
  29   2.0000      -0.279649        -7.6096 
  30   2.0000      -0.236875        -6.4457 
  31   2.0000      -0.236170        -6.4265 
  32   2.0000      -0.212205        -5.7744 
  33   2.0000      -0.189975        -5.1695 
  34   2.0000      -0.189109        -5.1459 
  35   2.0000      -0.167732        -4.5642 
  36   2.0000      -0.146275        -3.9803 
  37   2.0000      -0.140755        -3.8301 
  38   2.0000      -0.126599        -3.4449 
  39   2.0000      -0.118861        -3.2344 
  40   0.0000       0.055436         1.5085 
  41   0.0000       0.189175         5.1477 
  42   0.0000       0.199871         5.4388 
  43   0.0000       0.260546         7.0898 
  44   0.0000       0.265183         7.2160 
  45   0.0000       0.296450         8.0668 
  46   0.0000       0.320440         8.7196 
  47   0.0000       0.323272         8.7967 
  48   0.0000       0.348953         9.4955 
  49   0.0000       0.359067         9.7707 
  50   0.0000       0.505954        13.7677 
  51   0.0000       0.525776        14.3071 
  52   0.0000       0.560447        15.2505 
  53   0.0000       0.574916        15.6443 
  54   0.0000       0.634080        17.2542 
  55   0.0000       0.649623        17.6771 
  56   0.0000       0.664338        18.0775 
  57   0.0000       0.727766        19.8035 
  58   0.0000       0.770535        20.9673 
  59   0.0000       0.830905        22.6101 
  60   0.0000       0.867959        23.6184 
  61   0.0000       0.882422        24.0119 
  62   0.0000       0.917798        24.9746 
  63   0.0000       0.928531        25.2666 
  64   0.0000       0.960544        26.1377 
  65   0.0000       0.978982        26.6395 
  66   0.0000       0.994877        27.0720 
  67   0.0000       1.016218        27.6527 
  68   0.0000       1.021539        27.7975 
  69   0.0000       1.023358        27.8470 
  70   0.0000       1.032751        28.1026 
  71   0.0000       1.046748        28.4834 
  72   0.0000       1.051621        28.6161 
  73   0.0000       1.052636        28.6437 
  74   0.0000       1.065869        29.0038 
  75   0.0000       1.079850        29.3842 
  76   0.0000       1.081914        29.4404 
  77   0.0000       1.084569        29.5126 
  78   0.0000       1.127600        30.6835 
  79   0.0000       1.141963        31.0744 
  80   0.0000       1.156027        31.4571 
  81   0.0000       1.162267        31.6269 
  82   0.0000       1.206300        32.8251 
  83   0.0000       1.212005        32.9803 
  84   0.0000       1.224149        33.3108 
  85   0.0000       1.259764        34.2799 
  86   0.0000       1.270780        34.5797 
  87   0.0000       1.296594        35.2821 
  88   0.0000       1.323792        36.0222 
  89   0.0000       1.390793        37.8454 
  90   0.0000       1.529509        41.6201 
  91   0.0000       1.578188        42.9447 
  92   0.0000       1.588236        43.2181 
  93   0.0000       1.648332        44.8534 
  94   0.0000       1.691672        46.0327 
  95   0.0000       1.710495        46.5449 
  96   0.0000       1.722901        46.8825 
  97   0.0000       1.728234        47.0276 
  98   0.0000       1.818079        49.4724 
  99   0.0000       1.818889        49.4945 
 100   0.0000       1.949219        53.0409 
 101   0.0000       2.009570        54.6832 
 102   0.0000       2.422810        65.9280 
 103   0.0000       2.426485        66.0280 
 104   0.0000       2.446180        66.5639 
 105   0.0000       2.480753        67.5047 
 106   0.0000      13.819301       376.0423 
 107   0.0000      51.092866      1390.3076 
 108   0.0000     282.750222      7694.0247 

                    ********************************
                    * MULLIKEN POPULATION ANALYSIS *
                    ********************************

-----------------------
MULLIKEN ATOMIC CHARGES
-----------------------
   0 Pt:    0.162439
   1 Cl:   -0.430453
   2 Cl:   -0.304321
   3 Cl:   -0.430972
   4 C :   -0.915535
   5 H :    0.197372
   6 H :    0.254483
   7 H :    0.203976
   8 H :    0.263010
Sum of atomic charges:   -1.0000000

--------------------------------
MULLIKEN REDUCED ORBITAL CHARGES
--------------------------------
  0 Pts       :     2.657766  s :     2.657766
      pz      :     2.118989  p :     6.388904
      px      :     2.132231
      py      :     2.137684
      dz2     :     1.218537  d :     8.771083
      dxz     :     1.856438
      dyz     :     2.012365
      dx2y2   :     1.906463
      dxy     :     1.777280
      f0      :     0.006791  f :     0.019808
      f+1     :     0.004723
      f-1     :     0.002395
      f+2     :     0.000891
      f-2     :     0.001266
      f+3     :     0.001404
      f-3     :     0.002338
  1 Cls       :     5.944016  s :     5.944016
      pz      :     3.686429  p :    11.468000
      px      :     3.851688
      py      :     3.929883
      dz2     :     0.007575  d :     0.018436
      dxz     :     0.004782
      dyz     :     0.004696
      dx2y2   :     0.000671
      dxy     :     0.000713
  2 Cls       :     5.957116  s :     5.957116
      pz      :     3.939780  p :    11.321464
      px      :     3.549209
      py      :     3.832474
      dz2     :     0.003085  d :     0.025741
      dxz     :     0.005424
      dyz     :     0.001852
      dx2y2   :     0.007311
      dxy     :     0.008069
  3 Cls       :     5.944313  s :     5.944313
      pz      :     3.632436  p :    11.468259
      px      :     3.914113
      py      :     3.921710
      dz2     :     0.007654  d :     0.018401
      dxz     :     0.004950
      dyz     :     0.004993
      dx2y2   :     0.000399
      dxy     :     0.000405
  4 C s       :     3.454035  s :     3.454035
      pz      :     1.173274  p :     3.431741
      px      :     1.152203
      py      :     1.106263
      dz2     :     0.007901  d :     0.029759
      dxz     :     0.007468
      dyz     :     0.001733
      dx2y2   :     0.004373
      dxy     :     0.008284
  5 H s       :     0.802628  s :     0.802628
  6 H s       :     0.745517  s :     0.745517
  7 H s       :     0.796024  s :     0.796024
  8 H s       :     0.736990  s :     0.736990


                     *******************************
                     * LOEWDIN POPULATION ANALYSIS *
                     *******************************

----------------------
LOEWDIN ATOMIC CHARGES
----------------------
   0 Pt:   -0.816948
   1 Cl:   -0.122164
   2 Cl:    0.035336
   3 Cl:   -0.124991
   4 C :   -0.520078
   5 H :    0.117115
   6 H :    0.153051
   7 H :    0.121556
   8 H :    0.157123

-------------------------------
LOEWDIN REDUCED ORBITAL CHARGES
-------------------------------
  0 Pts       :     2.724606  s :     2.724606
      pz      :     2.332024  p :     6.788063
      px      :     2.257215
      py      :     2.198824
      dz2     :     1.406743  d :     9.269787
      dxz     :     1.976524
      dyz     :     2.086836
      dx2y2   :     1.959283
      dxy     :     1.840401
      f0      :     0.012467  f :     0.034492
      f+1     :     0.008147
      f-1     :     0.004011
      f+2     :     0.001458
      f-2     :     0.002100
      f+3     :     0.002415
      f-3     :     0.003894
  1 Cls       :     5.750389  s :     5.750389
      pz      :     3.656771  p :    11.350827
      px      :     3.811219
      py      :     3.882838
      dz2     :     0.008798  d :     0.020947
      dxz     :     0.005228
      dyz     :     0.005388
      dx2y2   :     0.000745
      dxy     :     0.000789
  2 Cls       :     5.740240  s :     5.740240
      pz      :     3.890113  p :    11.195463
      px      :     3.519370
      py      :     3.785979
      dz2     :     0.003341  d :     0.028961
      dxz     :     0.006427
      dyz     :     0.002173
      dx2y2   :     0.008140
      dxy     :     0.008881
  3 Cls       :     5.750656  s :     5.750656
      pz      :     3.609566  p :    11.353450
      px      :     3.867849
      py      :     3.876034
      dz2     :     0.008398  d :     0.020886
      dxz     :     0.005995
      dyz     :     0.005666
      dx2y2   :     0.000412
      dxy     :     0.000415
  4 C s       :     3.000615  s :     3.000615
      pz      :     1.173795  p :     3.471296
      px      :     1.157919
      py      :     1.139583
      dz2     :     0.012696  d :     0.048166
      dxz     :     0.011846
      dyz     :     0.002841
      dx2y2   :     0.007109
      dxy     :     0.013674
  5 H s       :     0.882885  s :     0.882885
  6 H s       :     0.846949  s :     0.846949
  7 H s       :     0.878444  s :     0.878444
  8 H s       :     0.842877  s :     0.842877


                      *****************************
                      * MAYER POPULATION ANALYSIS *
                      *****************************

  NA   - Mulliken gross atomic population
  ZA   - Total nuclear charge
  QA   - Mulliken gross atomic charge
  VA   - Mayer's total valence
  BVA  - Mayer's bonded valence
  FA   - Mayer's free valence

  ATOM       NA         ZA         QA         VA         BVA        FA
  0 Pt    17.8376    18.0000     0.1624     2.7025     2.7025    -0.0000
  1 Cl    17.4305    17.0000    -0.4305     0.9735     0.9735     0.0000
  2 Cl    17.3043    17.0000    -0.3043     1.0802     1.0802    -0.0000
  3 Cl    17.4310    17.0000    -0.4310     0.9715     0.9715     0.0000
  4 C      6.9155     6.0000    -0.9155     3.7043     3.7043     0.0000
  5 H      0.8026     1.0000     0.1974     0.9200     0.9200    -0.0000
  6 H      0.7455     1.0000     0.2545     0.9080     0.9080     0.0000
  7 H      0.7960     1.0000     0.2040     0.9193     0.9193    -0.0000
  8 H      0.7370     1.0000     0.2630     0.9129     0.9129     0.0000

  Mayer bond orders larger than 0.100000
B(  0-Pt,  1-Cl) :   0.8270 B(  0-Pt,  2-Cl) :   1.0267 B(  0-Pt,  3-Cl) :   0.8094 
B(  1-Cl,  3-Cl) :   0.1088 B(  4-C ,  5-H ) :   0.9392 B(  4-C ,  6-H ) :   0.9063 
B(  4-C ,  7-H ) :   0.9393 B(  4-C ,  8-H ) :   0.8972 

-------
TIMINGS
-------

Total SCF time: 0 days 0 hours 0 min 5 sec 

Total time                  ....       5.579 sec
Sum of individual times     ....       5.308 sec  ( 95.1%)

Fock matrix formation       ....       4.876 sec  ( 87.4%)
  Split-RI-J                ....       0.480 sec  (  9.8% of F)
  Chain of spheres X        ....       3.880 sec  ( 79.6% of F)
  XC integration            ....       0.438 sec  (  9.0% of F)
    Basis function eval.    ....       0.192 sec  ( 43.8% of XC)
    Density eval.           ....       0.071 sec  ( 16.2% of XC)
    XC-Functional eval.     ....       0.079 sec  ( 18.1% of XC)
    XC-Potential eval.      ....       0.055 sec  ( 12.5% of XC)
Diagonalization             ....       0.030 sec  (  0.5%)
Density matrix formation    ....       0.002 sec  (  0.0%)
Population analysis         ....       0.056 sec  (  1.0%)
Initial guess               ....       0.004 sec  (  0.1%)
Orbital Transformation      ....       0.000 sec  (  0.0%)
Orbital Orthonormalization  ....       0.002 sec  (  0.0%)
DIIS solution               ....       0.025 sec  (  0.4%)
Grid generation             ....       0.315 sec  (  5.6%)

Maximum memory used throughout the entire SCF-calculation: 62.0 MB


-------------------------------------------------------------------------------
                          DFT DISPERSION CORRECTION                            
                                                                               
                              DFTD3 V3.1  Rev 1                                
                          USING Becke-Johnson damping                          
-------------------------------------------------------------------------------
The PBEh-3c composite method is recognized
Using three-body term ABC
Active option DFTDOPT                   ...         4   

molecular C6(AA) [au] = 3398.918064 


            DFT-D V3
 parameters
 s6 scaling factor         :     1.0000 
 a1 scaling factor         :     0.4860 
 s8 scaling factor         :     0.0000 
 a2 scaling factor         :     4.5000 
 Damping factor alpha9(ATM):    16.0000 
 ad hoc parameters k1-k3   :    16.0000     1.3333    -4.0000 

 Edisp/kcal,au: -2.684188905412  -0.004277526842 
 E6   /kcal   :  -2.690265227 
 E8   /kcal   :  -0.000000000 
 E6(ABC)      :   0.006076322 
 % E8         :   0.000000000 
 % E6(ABC)    :  -0.226374589 

-------------------------   ----------------
Dispersion correction           -0.004277527
-------------------------   ----------------

 ** NOTE ** -> element pt will be treated as ni
NOTIFICATION: Different basis set in ORCA and otool_gcp:
ORCA: 109  gCP: 108 
If you are NOT using ECPs, check your basis set inputs!
------------------   -----------------
gCP correction             0.005784936
------------------   -----------------

-------------------------   --------------------
FINAL SINGLE POINT ENERGY     -1539.048935554461
-------------------------   --------------------

                                *** OPTIMIZATION RUN DONE ***

                            ***************************************
                            *     ORCA property calculations      *
                            ***************************************

                                    ---------------------
                                    Active property flags
                                    ---------------------
   (+) Dipole Moment


------------------------------------------------------------------------------
                       ORCA ELECTRIC PROPERTIES CALCULATION
------------------------------------------------------------------------------

Dipole Moment Calculation                       ... on
Quadrupole Moment Calculation                   ... off
Polarizability Calculation                      ... off
GBWName                                         ... reaction-6-rct-pbeh3c-orca_opt.gbw
Electron density                                ... reaction-6-rct-pbeh3c-orca_opt.scfp
The origin for moment calculation is the CENTER OF MASS  = (-3.202196, -1.017472  0.959749)

-------------
DIPOLE MOMENT
-------------
                                X             Y             Z
Electronic contribution:    -13.64233       0.48383       6.75611
Nuclear contribution   :     14.43537      -0.12696      -6.94203
                        -----------------------------------------
Total Dipole Moment    :      0.79303       0.35688      -0.18591
                        -----------------------------------------
Magnitude (a.u.)       :      0.88928
Magnitude (Debye)      :      2.26037



--------------------
Rotational spectrum 
--------------------
 
Rotational constants in cm-1:     0.045349     0.041482     0.021922 
Rotational constants in MHz :  1359.516580  1243.610444   657.207120 

 Dipole components along the rotational axes: 
x,y,z [a.u.] :    -0.786205    -0.414396     0.031305 
x,y,z [Debye]:    -1.998374    -1.053311     0.079570 

 

Timings for individual modules:

Sum of individual times         ...     1026.067 sec (=  17.101 min)
GTO integral calculation        ...       59.825 sec (=   0.997 min)   5.8 %
SCF iterations                  ...      739.557 sec (=  12.326 min)  72.1 %
SCF Gradient evaluation         ...      217.250 sec (=   3.621 min)  21.2 %
Geometry relaxation             ...        9.435 sec (=   0.157 min)   0.9 %
                             ****ORCA TERMINATED NORMALLY****
TOTAL RUN TIME: 0 days 0 hours 17 minutes 54 seconds 346 msec
