
                                 *****************
                                 * O   R   C   A *
                                 *****************

                                            #,                                       
                                            ###                                      
                                            ####                                     
                                            #####                                    
                                            ######                                   
                                           ########,                                 
                                     ,,################,,,,,                         
                               ,,#################################,,                 
                          ,,##########################################,,             
                       ,#########################################, ''#####,          
                    ,#############################################,,   '####,        
                  ,##################################################,,,,####,       
                ,###########''''           ''''###############################       
              ,#####''   ,,,,##########,,,,          '''####'''          '####       
            ,##' ,,,,###########################,,,                        '##       
           ' ,,###''''                  '''############,,,                           
         ,,##''                                '''############,,,,        ,,,,,,###''
      ,#''                                            '''#######################'''  
     '                                                          ''''####''''         
             ,#######,   #######,   ,#######,      ##                                
            ,#'     '#,  ##    ##  ,#'     '#,    #''#        ######   ,####,        
            ##       ##  ##   ,#'  ##            #'  '#       #        #'  '#        
            ##       ##  #######   ##           ,######,      #####,   #    #        
            '#,     ,#'  ##    ##  '#,     ,#' ,#      #,         ##   #,  ,#        
             '#######'   ##     ##  '#######'  #'      '#     #####' # '####'        



                  #######################################################
                  #                        -***-                        #
                  #          Department of theory and spectroscopy      #
                  #    Directorship and core code : Frank Neese         #
                  #        Max Planck Institute fuer Kohlenforschung    #
                  #                Kaiser Wilhelm Platz 1               #
                  #                 D-45470 Muelheim/Ruhr               #
                  #                      Germany                        #
                  #                                                     #
                  #                  All rights reserved                #
                  #                        -***-                        #
                  #######################################################


                         Program Version 5.0.4 -  RELEASE  -


 With contributions from (in alphabetic order):
   Daniel Aravena         : Magnetic Suceptibility
   Michael Atanasov       : Ab Initio Ligand Field Theory (pilot matlab implementation)
   Alexander A. Auer      : GIAO ZORA, VPT2 properties, NMR spectrum
   Ute Becker             : Parallelization
   Giovanni Bistoni       : ED, misc. LED, open-shell LED, HFLD
   Martin Brehm           : Molecular dynamics
   Dmytro Bykov           : SCF Hessian
   Vijay G. Chilkuri      : MRCI spin determinant printing, contributions to CSF-ICE
   Dipayan Datta          : RHF DLPNO-CCSD density
   Achintya Kumar Dutta   : EOM-CC, STEOM-CC
   Dmitry Ganyushin       : Spin-Orbit,Spin-Spin,Magnetic field MRCI
   Miquel Garcia          : C-PCM and meta-GGA Hessian, CC/C-PCM, Gaussian charge scheme
   Yang Guo               : DLPNO-NEVPT2, F12-NEVPT2, CIM, IAO-localization
   Andreas Hansen         : Spin unrestricted coupled pair/coupled cluster methods
   Benjamin Helmich-Paris : MC-RPA, TRAH-SCF, COSX integrals
   Lee Huntington         : MR-EOM, pCC
   Robert Izsak           : Overlap fitted RIJCOSX, COSX-SCS-MP3, EOM
   Marcus Kettner         : VPT2
   Christian Kollmar      : KDIIS, OOCD, Brueckner-CCSD(T), CCSD density, CASPT2, CASPT2-K
   Simone Kossmann        : Meta GGA functionals, TD-DFT gradient, OOMP2, MP2 Hessian
   Martin Krupicka        : Initial AUTO-CI
   Lucas Lang             : DCDCAS
   Marvin Lechner         : AUTO-CI (C++ implementation), FIC-MRCC
   Dagmar Lenk            : GEPOL surface, SMD
   Dimitrios Liakos       : Extrapolation schemes; Compound Job, initial MDCI parallelization
   Dimitrios Manganas     : Further ROCIS development; embedding schemes
   Dimitrios Pantazis     : SARC Basis sets
   Anastasios Papadopoulos: AUTO-CI, single reference methods and gradients
   Taras Petrenko         : DFT Hessian,TD-DFT gradient, ASA, ECA, R-Raman, ABS, FL, XAS/XES, NRVS
   Peter Pinski           : DLPNO-MP2, DLPNO-MP2 Gradient
   Christoph Reimann      : Effective Core Potentials
   Marius Retegan         : Local ZFS, SOC
   Christoph Riplinger    : Optimizer, TS searches, QM/MM, DLPNO-CCSD(T), (RO)-DLPNO pert. Triples
   Tobias Risthaus        : Range-separated hybrids, TD-DFT gradient, RPA, STAB
   Michael Roemelt        : Original ROCIS implementation
   Masaaki Saitow         : Open-shell DLPNO-CCSD energy and density
   Barbara Sandhoefer     : DKH picture change effects
   Avijit Sen             : IP-ROCIS
   Kantharuban Sivalingam : CASSCF convergence, NEVPT2, FIC-MRCI
   Bernardo de Souza      : ESD, SOC TD-DFT
   Georgi Stoychev        : AutoAux, RI-MP2 NMR, DLPNO-MP2 response
   Willem Van den Heuvel  : Paramagnetic NMR
   Boris Wezisla          : Elementary symmetry handling
   Frank Wennmohs         : Technical directorship


 We gratefully acknowledge several colleagues who have allowed us to
 interface, adapt or use parts of their codes:
   Stefan Grimme, W. Hujo, H. Kruse, P. Pracht,  : VdW corrections, initial TS optimization,
                  C. Bannwarth, S. Ehlert          DFT functionals, gCP, sTDA/sTD-DF
   Ed Valeev, F. Pavosevic, A. Kumar             : LibInt (2-el integral package), F12 methods
   Garnet Chan, S. Sharma, J. Yang, R. Olivares  : DMRG
   Ulf Ekstrom                                   : XCFun DFT Library
   Mihaly Kallay                                 : mrcc  (arbitrary order and MRCC methods)
   Jiri Pittner, Ondrej Demel                    : Mk-CCSD
   Frank Weinhold                                : gennbo (NPA and NBO analysis)
   Christopher J. Cramer and Donald G. Truhlar   : smd solvation model
   Lars Goerigk                                  : TD-DFT with DH, B97 family of functionals
   V. Asgeirsson, H. Jonsson                     : NEB implementation
   FAccTs GmbH                                   : IRC, NEB, NEB-TS, DLPNO-Multilevel, CI-OPT
                                                   MM, QMMM, 2- and 3-layer-ONIOM, Crystal-QMMM,
                                                   LR-CPCM, SF, NACMEs, symmetry and pop. for TD-DFT,
                                                   nearIR, NL-DFT gradient (VV10), updates on ESD,
                                                   ML-optimized integration grids
   S Lehtola, MJT Oliveira, MAL Marques          : LibXC Library
   Liviu Ungur et al                             : ANISO software


 Your calculation uses the libint2 library for the computation of 2-el integrals
 For citations please refer to: http://libint.valeyev.net

 Your ORCA version has been built with support for libXC version: 5.1.0
 For citations please refer to: https://tddft.org/programs/libxc/

 This ORCA versions uses:
   CBLAS   interface :  Fast vector & matrix operations
   LAPACKE interface :  Fast linear algebra routines
   SCALAPACK package :  Parallel linear algebra routines
   Shared memory     :  Shared parallel matrices
   BLAS/LAPACK       :  OpenBLAS 0.3.15  USE64BITINT DYNAMIC_ARCH NO_AFFINITY SkylakeX SINGLE_THREADED
        Core in use  :  SkylakeX
   Copyright (c) 2011-2014, The OpenBLAS Project




***************************************
The coordinates will be read from file: DHSGS_ts_guess.xyz
***************************************




################################################################################


                                COMPOUND JOB MainJOB 
Basename: reaction-5-dhsgs_optts_Compound_0

################################################################################

================================================================================
                                       INPUT FILE
================================================================================
NAME = reaction-5-dhsgs_optts_Compound_0.inp
|  1> %pal nprocs 8 end 
|  2>   
|  3>  *xyzfile 1 1 DHSGS_ts_guess.xyz 
|  4>   
|  5> 
|  6>                          ****END OF INPUT****
================================================================================


***************************************
The coordinates will be read from file: DHSGS_ts_guess.xyz
***************************************


================================================================================

----- Orbital basis set information -----
Your calculation utilizes the basis: def2-SVP
   F. Weigend and R. Ahlrichs, Phys. Chem. Chem. Phys. 7, 3297 (2005).



################################################################################


                                COMPOUND JOB  1 
Basename: reaction-5-dhsgs_optts_Compound_1
NOTE: please remember that MaxCore and PAL settings will be ignored.

################################################################################

================================================================================
                                       INPUT FILE
================================================================================
NAME = reaction-5-dhsgs_optts_Compound_1.inp
|  1>   
|  2>    
|  3>   ! PBEh-3c OptTS Freq pal8 
|  4>    
|  5>   %geom 
|  6>    calc_hess true 
|  7>    recalc_hess 20 
|  8>    maxiter 600 
|  9>   end  
| 10>    
| 11> 
| 12>                          ****END OF INPUT****
================================================================================
Your calculation utilizes the geometrical counterpoise correction gCP
Please cite in your paper:
H.Kruse, S. Grimme J.Chem.Phys., 136, (2012), 154101 
   

Your calculation utilizes the atom-pairwise dispersion correction
with the Becke-Johnson damping scheme (D3BJ)
Cite in your paper:
S.Grimme, S.Ehrlich, L.Goerigk, J Comput Chem, (2011), 32, 1456–1465 
S.Grimme, J.Antony, S.Ehrlich and H.Krieg, J.Chem.Phys., 132, (2010), 154104 
   

Your calculation employs the composite approach PBEh-3c.
Please cite in your paper:
S. Grimme, J. G. Brandenburg, C. Bannwarth, A. Hansen J.Chem.Phys., 143, (2015), 054107 
   

================================================================================

----- Orbital basis set information -----
Your calculation utilizes the basis: def2-mSVP

----- AuxJ basis set information -----
Your calculation utilizes the auxiliary basis: def2/J
   F. Weigend, Phys. Chem. Chem. Phys. 8, 1057 (2006).

================================================================================
                                        WARNINGS
                       Please study these warnings very carefully!
================================================================================


WARNING: Geometry Optimization
  ===> : Switching off AutoStart
         For restart on a previous wavefunction, please use MOREAD

INFO   : the flag for use of the SHARK integral package has been found!


                       *****************************
                       * Geometry Optimization Run *
                       *****************************

Geometry optimization settings:
Update method            Update   .... Bofill
Choice of coordinates    CoordSys .... Z-matrix Internals
Initial Hessian          InHess   .... Almoef's Model

Convergence Tolerances:
Energy Change            TolE     ....  5.0000e-06 Eh
Max. Gradient            TolMAXG  ....  3.0000e-04 Eh/bohr
RMS Gradient             TolRMSG  ....  1.0000e-04 Eh/bohr
Max. Displacement        TolMAXD  ....  4.0000e-03 bohr
RMS Displacement         TolRMSD  ....  2.0000e-03 bohr
Strict Convergence                ....  False
------------------------------------------------------------------------------
                        ORCA OPTIMIZATION COORDINATE SETUP
------------------------------------------------------------------------------

The optimization will be done in new redundant internal coordinates
Making redundant internal coordinates   ...  (new redundants) done
Following TS mode number                ...     0
Evaluating the initial hessian          ...  (Is done on the fly) done
Evaluating the coordinates              ...  done
Calculating the B-matrix                .... done
Calculating the G-matrix                .... done
Diagonalizing the G-matrix              .... done
Small eigenvalue found = 1.519e-02
Small eigenvalue found = 2.256e-02
The first mode is                       ....   42
The number of degrees of freedom        ....   57

    -----------------------------------------------------------------
                    Redundant Internal Coordinates


    -----------------------------------------------------------------
         Definition                    Initial Value    d2E/dq (diagonal element)
    -----------------------------------------------------------------
      1. B(C   1,Sc  0)                  2.3532         0.000000   
      2. B(N   2,C   1)                  1.3474         0.000000   
      3. B(C   3,N   2)                  1.3704         0.000000   
      4. B(C   4,C   3)                  1.3506         0.000000   
      5. B(N   5,C   1)                  1.3475         0.000000   
      6. B(N   5,C   4)                  1.3690         0.000000   
      7. B(C   6,N   5)                  1.4530         0.000000   
      8. B(H   7,C   6)                  1.0868         0.000000   
      9. B(H   8,C   6)                  1.0875         0.000000   
     10. B(H   9,C   6)                  1.0869         0.000000   
     11. B(C  10,N   2)                  1.4510         0.000000   
     12. B(H  11,C  10)                  1.0858         0.000000   
     13. B(H  12,C  10)                  1.0881         0.000000   
     14. B(H  13,C  10)                  1.0885         0.000000   
     15. B(H  14,C   3)                  1.0774         0.000000   
     16. B(H  15,C   4)                  1.0761         0.000000   
     17. B(C  16,Sc  0)                  2.1012         0.000000   
     18. B(H  17,C  16)                  1.1021         0.000000   
     19. B(H  18,C  16)                  1.0901         0.000000   
     20. B(H  19,C  16)                  1.1081         0.000000   
     21. B(H  20,Sc  0)                  1.7572         0.000000   
     22. A(C   1,Sc  0,C  16)          104.0119         0.000000   
     23. A(C  16,Sc  0,H  20)           49.8013         0.000000   
     24. A(C   1,Sc  0,H  20)          110.0824         0.000000   
     25. A(N   2,C   1,N   5)          104.2665         0.000000   
     26. A(Sc  0,C   1,N   5)          113.0292         0.000000   
     27. A(Sc  0,C   1,N   2)          131.3217         0.000000   
     28. A(C   3,N   2,C  10)          122.7021         0.000000   
     29. A(C   1,N   2,C   3)          111.2461         0.000000   
     30. A(C   1,N   2,C  10)          126.0518         0.000000   
     31. A(C   4,C   3,H  14)          130.4640         0.000000   
     32. A(N   2,C   3,H  14)          122.9181         0.000000   
     33. A(N   2,C   3,C   4)          106.6178         0.000000   
     34. A(C   3,C   4,H  15)          130.5664         0.000000   
     35. A(C   3,C   4,N   5)          106.3315         0.000000   
     36. A(N   5,C   4,H  15)          123.1016         0.000000   
     37. A(C   1,N   5,C   4)          111.4911         0.000000   
     38. A(C   4,N   5,C   6)          123.8679         0.000000   
     39. A(C   1,N   5,C   6)          124.6314         0.000000   
     40. A(H   8,C   6,H   9)          109.0369         0.000000   
     41. A(H   7,C   6,H   9)          107.5751         0.000000   
     42. A(N   5,C   6,H   9)          110.1199         0.000000   
     43. A(H   7,C   6,H   8)          109.3499         0.000000   
     44. A(N   5,C   6,H   8)          110.8978         0.000000   
     45. A(N   5,C   6,H   7)          109.7924         0.000000   
     46. A(H  12,C  10,H  13)          108.7835         0.000000   
     47. A(H  11,C  10,H  13)          107.7958         0.000000   
     48. A(N   2,C  10,H  13)          109.7326         0.000000   
     49. A(H  11,C  10,H  12)          109.6180         0.000000   
     50. A(N   2,C  10,H  12)          110.8767         0.000000   
     51. A(N   2,C  10,H  11)          109.9709         0.000000   
     52. A(H  17,C  16,H  18)          105.8463         0.000000   
     53. A(Sc  0,C  16,H  18)          144.3427         0.000000   
     54. A(Sc  0,C  16,H  17)           98.2666         0.000000   
     55. A(H  18,C  16,H  19)          106.1702         0.000000   
     56. A(H  17,C  16,H  19)          110.1741         0.000000   
     57. A(Sc  0,C  16,H  19)           89.1578         0.000000   
     58. D(N   2,C   1,Sc  0,C  16)     87.3264         0.000000   
     59. D(N   5,C   1,Sc  0,C  16)    -49.5828         0.000000   
     60. D(N   5,C   1,Sc  0,H  20)      2.3152         0.000000   
     61. D(N   2,C   1,Sc  0,H  20)    139.2244         0.000000   
     62. D(C  10,N   2,C   1,N   5)   -178.0848         0.000000   
     63. D(C   3,N   2,C   1,Sc  0)   -137.5745         0.000000   
     64. D(C   3,N   2,C   1,N   5)      1.9804         0.000000   
     65. D(C  10,N   2,C   1,Sc  0)     42.3603         0.000000   
     66. D(H  14,C   3,N   2,C  10)     -1.0925         0.000000   
     67. D(C   4,C   3,N   2,C  10)    179.0196         0.000000   
     68. D(C   4,C   3,N   2,C   1)     -1.0430         0.000000   
     69. D(H  14,C   3,N   2,C   1)    178.8449         0.000000   
     70. D(N   5,C   4,C   3,H  14)    179.7739         0.000000   
     71. D(H  15,C   4,C   3,N   2)    179.3980         0.000000   
     72. D(N   5,C   4,C   3,N   2)     -0.3498         0.000000   
     73. D(H  15,C   4,C   3,H  14)     -0.4783         0.000000   
     74. D(C   6,N   5,C   4,H  15)      0.7890         0.000000   
     75. D(C   1,N   5,C   4,H  15)   -178.1294         0.000000   
     76. D(C   6,N   5,C   1,N   2)    178.8761         0.000000   
     77. D(C   6,N   5,C   1,Sc  0)    -33.0878         0.000000   
     78. D(C   4,N   5,C   1,N   2)     -2.2153         0.000000   
     79. D(C   6,N   5,C   4,C   3)   -179.4397         0.000000   
     80. D(C   4,N   5,C   1,Sc  0)    145.8207         0.000000   
     81. D(C   1,N   5,C   4,C   3)      1.6419         0.000000   
     82. D(H   9,C   6,N   5,C   4)    160.0060         0.000000   
     83. D(H   9,C   6,N   5,C   1)    -21.2172         0.000000   
     84. D(H   8,C   6,N   5,C   4)    -79.2161         0.000000   
     85. D(H   8,C   6,N   5,C   1)     99.5608         0.000000   
     86. D(H   7,C   6,N   5,C   4)     41.7373         0.000000   
     87. D(H   7,C   6,N   5,C   1)   -139.4858         0.000000   
     88. D(H  11,C  10,N   2,C   1)     15.7215         0.000000   
     89. D(H  13,C  10,N   2,C   3)    -45.9384         0.000000   
     90. D(H  13,C  10,N   2,C   1)    134.1338         0.000000   
     91. D(H  12,C  10,N   2,C   3)     74.2550         0.000000   
     92. D(H  12,C  10,N   2,C   1)   -105.6728         0.000000   
     93. D(H  11,C  10,N   2,C   3)   -164.3507         0.000000   
     94. D(H  19,C  16,Sc  0,H  20)   -137.2543         0.000000   
     95. D(H  19,C  16,Sc  0,C   1)    -32.6312         0.000000   
     96. D(H  18,C  16,Sc  0,H  20)    -20.0412         0.000000   
     97. D(H  18,C  16,Sc  0,C   1)     84.5819         0.000000   
     98. D(H  17,C  16,Sc  0,H  20)    112.4786         0.000000   
     99. D(H  17,C  16,Sc  0,C   1)   -142.8983         0.000000   
    -----------------------------------------------------------------

Number of atoms                         .... 21
Number of degrees of freedom            .... 99

         *************************************************************
         *                GEOMETRY OPTIMIZATION CYCLE   1            *
         *************************************************************
---------------------------------
CARTESIAN COORDINATES (ANGSTROEM)
---------------------------------
  Sc     0.841060   -0.402190   -2.101070
  C      0.488800   -0.677920    0.209180
  N     -0.444760   -1.370770    0.890360
  C     -0.913690   -0.653380    1.959690
  C     -0.239290    0.516760    1.965410
  N      0.623520    0.469010    0.903540
  C      1.547030    1.537460    0.561930
  H      2.001630    1.934040    1.465970
  H      1.034970    2.339000    0.034600
  H      2.346610    1.153870   -0.066420
  C     -0.922660   -2.702720    0.569740
  H     -0.240890   -3.184130   -0.124880
  H     -1.919330   -2.662860    0.134970
  H     -0.958610   -3.307800    1.473850
  H     -1.678940   -1.022590    2.622150
  H     -0.309600    1.361800    2.627990
  C     -0.366280    1.241400   -2.607210
  H     -0.699970    0.893650   -3.598300
  H     -0.410760    2.330040   -2.643210
  H     -1.090160    0.928550   -1.828780
  H      1.280360    1.263040   -2.449910

----------------------------
CARTESIAN COORDINATES (A.U.)
----------------------------
  NO LB      ZA    FRAG     MASS         X           Y           Z
   0 Sc   21.0000    0    44.960    1.589373   -0.760029   -3.970447
   1 C     6.0000    0    12.011    0.923698   -1.281083    0.395293
   2 N     7.0000    0    14.007   -0.840475   -2.590380    1.682537
   3 C     6.0000    0    12.011   -1.726624   -1.234709    3.703277
   4 C     6.0000    0    12.011   -0.452193    0.976535    3.714087
   5 N     7.0000    0    14.007    1.178282    0.886300    1.707443
   6 C     6.0000    0    12.011    2.923463    2.905378    1.061894
   7 H     1.0000    0     1.008    3.782533    3.654806    2.770282
   8 H     1.0000    0     1.008    1.955810    4.420069    0.065385
   9 H     1.0000    0     1.008    4.434450    2.180498   -0.125516
  10 C     6.0000    0    12.011   -1.743575   -5.107401    1.076653
  11 H     1.0000    0     1.008   -0.455216   -6.017134   -0.235989
  12 H     1.0000    0     1.008   -3.627008   -5.032076    0.255056
  13 H     1.0000    0     1.008   -1.811510   -6.250836    2.785173
  14 H     1.0000    0     1.008   -3.172737   -1.932415    4.955145
  15 H     1.0000    0     1.008   -0.585059    2.573429    4.966181
  16 C     6.0000    0    12.011   -0.692169    2.345906   -4.926913
  17 H     1.0000    0     1.008   -1.322752    1.688754   -6.799802
  18 H     1.0000    0     1.008   -0.776224    4.403137   -4.994943
  19 H     1.0000    0     1.008   -2.060104    1.754705   -3.455893
  20 H     1.0000    0     1.008    2.419530    2.386800   -4.629659

--------------------------------
INTERNAL COORDINATES (ANGSTROEM)
--------------------------------
 Sc     0   0   0     0.000000000000     0.00000000     0.00000000
 C      1   0   0     2.353161533554     0.00000000     0.00000000
 N      2   1   0     1.347435188979   131.32171462     0.00000000
 C      3   2   1     1.370405197706   111.24611600   222.42550755
 C      4   3   2     1.350583465766   106.61781798   358.95699004
 N      2   1   3     1.347491637414   113.02924909   223.09079860
 C      6   2   1     1.452980906516   124.63138454   326.91215339
 H      7   6   2     1.086841836699   109.79240036   220.51415699
 H      7   6   2     1.087542525192   110.89784041    99.56077056
 H      7   6   2     1.086873123690   110.11988323   338.78283408
 C      3   2   1     1.450957062390   126.05175581    42.36031929
 H     11   3   2     1.085846612280   109.97085156    15.72154064
 H     11   3   2     1.088101494071   110.87666085   254.32719299
 H     11   3   2     1.088498553513   109.73255309   134.13377437
 H      4   3   2     1.077393539149   122.91807445   178.84488776
 H      5   4   3     1.076126551155   130.56644583   179.39802941
 C      1   2   3     2.101246216725   104.01193361    87.32644960
 H     17   1   2     1.102061008611    98.26657781   217.10172572
 H     17   1   2     1.090142889717   144.34268051    84.58194265
 H     17   1   2     1.108075196817    89.15782428   327.36884062
 H     17   1   2     1.654277748505    54.22511997   104.62313659

---------------------------
INTERNAL COORDINATES (A.U.)
---------------------------
 Sc     0   0   0     0.000000000000     0.00000000     0.00000000
 C      1   0   0     4.446830847296     0.00000000     0.00000000
 N      2   1   0     2.546283490380   131.32171462     0.00000000
 C      3   2   1     2.589690516167   111.24611600   222.42550755
 C      4   3   2     2.552232871300   106.61781798   358.95699004
 N      2   1   3     2.546390162461   113.02924909   223.09079860
 C      6   2   1     2.745735991132   124.63138454   326.91215339
 H      7   6   2     2.053833422250   109.79240036   220.51415699
 H      7   6   2     2.055157531605   110.89784041    99.56077056
 H      7   6   2     2.053892546094   110.11988323   338.78283408
 C      3   2   1     2.741911479996   126.05175581    42.36031929
 H     11   3   2     2.051952720655   109.97085156    15.72154064
 H     11   3   2     2.056213829705   110.87666085   254.32719299
 H     11   3   2     2.056964163309   109.73255309   134.13377437
 H      4   3   2     2.035978727448   122.91807445   178.84488776
 H      5   4   3     2.033584467123   130.56644583   179.39802941
 C      1   2   3     3.970779889548   104.01193361    87.32644960
 H     17   1   2     2.082593489147    98.26657781   217.10172572
 H     17   1   2     2.060071508406   144.34268051    84.58194265
 H     17   1   2     2.093958657774    89.15782428   327.36884062
 H     17   1   2     3.126131894115    54.22511997   104.62313659

---------------------
BASIS SET INFORMATION
---------------------
There are 4 groups of distinct atoms

 Group   1 Type Sc  : 14s9p5d1f contracted to 5s3p2d1f pattern {63311/531/41/1}
 Group   2 Type C   : 8s4p1d contracted to 4s2p1d pattern {5111/31/1}
 Group   3 Type N   : 8s4p1d contracted to 4s2p1d pattern {5111/31/1}
 Group   4 Type H   : 4s contracted to 2s pattern {31}

Atom   0Sc   basis set group =>   1
Atom   1C    basis set group =>   2
Atom   2N    basis set group =>   3
Atom   3C    basis set group =>   2
Atom   4C    basis set group =>   2
Atom   5N    basis set group =>   3
Atom   6C    basis set group =>   2
Atom   7H    basis set group =>   4
Atom   8H    basis set group =>   4
Atom   9H    basis set group =>   4
Atom  10C    basis set group =>   2
Atom  11H    basis set group =>   4
Atom  12H    basis set group =>   4
Atom  13H    basis set group =>   4
Atom  14H    basis set group =>   4
Atom  15H    basis set group =>   4
Atom  16C    basis set group =>   2
Atom  17H    basis set group =>   4
Atom  18H    basis set group =>   4
Atom  19H    basis set group =>   4
Atom  20H    basis set group =>   4
---------------------------------
AUXILIARY/J BASIS SET INFORMATION
---------------------------------
There are 4 groups of distinct atoms

 Group   1 Type Sc  : 19s5p5d3f3g contracted to 8s5p5d2f3g pattern {121111111/11111/11111/21/111}
 Group   2 Type C   : 12s5p4d2f1g contracted to 6s4p3d1f1g pattern {711111/2111/211/2/1}
 Group   3 Type N   : 12s5p4d2f1g contracted to 6s4p3d1f1g pattern {711111/2111/211/2/1}
 Group   4 Type H   : 5s2p1d contracted to 3s1p1d pattern {311/2/1}

Atom   0Sc   basis set group =>   1
Atom   1C    basis set group =>   2
Atom   2N    basis set group =>   3
Atom   3C    basis set group =>   2
Atom   4C    basis set group =>   2
Atom   5N    basis set group =>   3
Atom   6C    basis set group =>   2
Atom   7H    basis set group =>   4
Atom   8H    basis set group =>   4
Atom   9H    basis set group =>   4
Atom  10C    basis set group =>   2
Atom  11H    basis set group =>   4
Atom  12H    basis set group =>   4
Atom  13H    basis set group =>   4
Atom  14H    basis set group =>   4
Atom  15H    basis set group =>   4
Atom  16C    basis set group =>   2
Atom  17H    basis set group =>   4
Atom  18H    basis set group =>   4
Atom  19H    basis set group =>   4
Atom  20H    basis set group =>   4


           ************************************************************
           *        Program running with 8 parallel MPI-processes     *
           *              working on a common directory               *
           ************************************************************
------------------------------------------------------------------------------
                           ORCA GTO INTEGRAL CALCULATION
                           -- RI-GTO INTEGRALS CHOSEN --
------------------------------------------------------------------------------
------------------------------------------------------------------------------
                   ___                                                        
                  /   \      - P O W E R E D   B Y -                         
                 /     \                                                     
                 |  |  |   _    _      __       _____    __    __             
                 |  |  |  | |  | |    /  \     |  _  \  |  |  /  |          
                  \  \/   | |  | |   /    \    | | | |  |  | /  /          
                 / \  \   | |__| |  /  /\  \   | |_| |  |  |/  /          
                |  |  |   |  __  | /  /__\  \  |    /   |      \           
                |  |  |   | |  | | |   __   |  |    \   |  |\   \          
                \     /   | |  | | |  |  |  |  | |\  \  |  | \   \       
                 \___/    |_|  |_| |__|  |__|  |_| \__\ |__|  \__/        
                                                                              
                      - O R C A' S   B I G   F R I E N D -                    
                                      &                                       
                       - I N T E G R A L  F E E D E R -                       
                                                                              
 v1 FN, 2020, v2 2021                                                         
------------------------------------------------------------------------------


Reading SHARK input file reaction-5-dhsgs_optts_Compound_1.SHARKINP.tmp ... ok
----------------------
SHARK INTEGRAL PACKAGE
----------------------

Number of atoms                             ...     21
Number of basis functions                   ...    175
Number of shells                            ...     91
Maximum angular momentum                    ...      3
Integral batch strategy                     ... SHARK/LIBINT Hybrid
RI-J (if used) integral strategy            ... SPLIT-RIJ (Revised 2003 algorithm where possible)
Printlevel                                  ...      1
Contraction scheme used                     ... SEGMENTED contraction
Coulomb Range Separation                    ... NOT USED
Exchange Range Separation                   ... NOT USED
Finite Nucleus Model                        ... NOT USED
Auxiliary Coulomb fitting basis             ... AVAILABLE
   # of basis functions in Aux-J            ...    613
   # of shells in Aux-J                     ...    203
   Maximum angular momentum in Aux-J        ...      4
Auxiliary J/K fitting basis                 ... NOT available
Auxiliary Correlation fitting basis         ... NOT available
Auxiliary 'external' fitting basis          ... NOT available
Integral threshold                          ...     2.500000e-11
Primitive cut-off                           ...     2.500000e-12
Primitive pair pre-selection threshold      ...     2.500000e-12

Calculating pre-screening integrals         ... done (  0.0 sec) Dimension = 91
Organizing shell pair data                  ... done (  0.0 sec)
Shell pair information
Total number of shell pairs                 ...      4186
Shell pairs after pre-screening             ...      3693
Total number of primitive shell pairs       ...     16651
Primitive shell pairs kept                  ...      9949
          la=0 lb=0:   1557 shell pairs
          la=1 lb=0:   1084 shell pairs
          la=1 lb=1:    188 shell pairs
          la=2 lb=0:    534 shell pairs
          la=2 lb=1:    187 shell pairs
          la=2 lb=2:     52 shell pairs
          la=3 lb=0:     61 shell pairs
          la=3 lb=1:     19 shell pairs
          la=3 lb=2:     10 shell pairs
          la=3 lb=3:      1 shell pairs

Calculating one electron integrals          ... done (  0.0 sec)
Calculating RI/J V-Matrix + Cholesky decomp.... done (  0.0 sec)
Calculating Nuclear repulsion               ... done (  0.0 sec) ENN=    588.689730428363 Eh

SHARK setup successfully completed in   0.2 seconds

Maximum memory used throughout the entire GTOINT-calculation: 17.4 MB


           ************************************************************
           *        Program running with 8 parallel MPI-processes     *
           *              working on a common directory               *
           ************************************************************
-------------------------------------------------------------------------------
                                 ORCA SCF
-------------------------------------------------------------------------------

------------
SCF SETTINGS
------------
Hamiltonian:
 Density Functional     Method          .... DFT(GTOs)
 Exchange Functional    Exchange        .... PBE
   PBE kappa parameter   XKappa         ....  1.024500
   PBE mue parameter    XMuePBE         ....  0.123457
 Correlation Functional Correlation     .... PBE
   PBE beta parameter  CBetaPBE         ....  0.030000
 LDA part of GGA corr.  LDAOpt          .... PW91-LDA
 Gradients option       PostSCFGGA      .... off
 Hybrid DFT is turned on
   Fraction HF Exchange ScalHFX         ....  0.420000
   Scaling of DF-GGA-X  ScalDFX         ....  0.580000
   Scaling of DF-GGA-C  ScalDFC         ....  1.000000
   Scaling of DF-LDA-C  ScalLDAC        ....  1.000000
   Perturbative correction              ....  0.000000
   Density functional embedding theory  .... OFF
 RI-approximation to the Coulomb term is turned on
   Number of AuxJ basis functions       .... 613
   RIJ-ON(X) (HFX calculated with O(N)) .... on
   Number of AuxJ basis functions       .... 613
   RIJ-COSX (HFX calculated with COS-X)).... on


General Settings:
 Integral files         IntName         .... reaction-5-dhsgs_optts_Compound_1
 Hartree-Fock type      HFTyp           .... RHF
 Total Charge           Charge          ....    1
 Multiplicity           Mult            ....    1
 Number of Electrons    NEL             ....   82
 Basis Dimension        Dim             ....  175
 Nuclear Repulsion      ENuc            ....    588.6897304284 Eh

Convergence Acceleration:
 DIIS                   CNVDIIS         .... on
   Start iteration      DIISMaxIt       ....    12
   Startup error        DIISStart       ....  0.200000
   # of expansion vecs  DIISMaxEq       ....     5
   Bias factor          DIISBfac        ....   1.050
   Max. coefficient     DIISMaxC        ....  10.000
 Trust-Rad. Augm. Hess. CNVTRAH         .... auto
   Auto Start mean grad. ratio tolernc. ....  1.125000
   Auto Start start iteration           ....    20
   Auto Start num. interpolation iter.  ....    10
   Max. Number of Micro iterations      ....    16
   Max. Number of Macro iterations      .... Maxiter - #DIIS iter
   Number of Davidson start vectors     ....     2
   Converg. threshold I  (grad. norm)   ....   1.000e-05
   Converg. threshold II (energy diff.) ....   1.000e-08
   Grad. Scal. Fac. for Micro threshold ....   0.100
   Minimum threshold for Micro iter.    ....   0.010
   NR start threshold (gradient norm)   ....   0.001
   Initial trust radius                 ....   0.400
   Minimum AH scaling param. (alpha)    ....   1.000
   Maximum AH scaling param. (alpha)    .... 1000.000
   Orbital update algorithm             .... Taylor
   White noise on init. David. guess    .... on
   Maximum white noise                  ....   0.010
   Quad. conv. algorithm                .... NR
   COSX micro iterations for RIJONX calc.... off
 SOSCF                  CNVSOSCF        .... off
 Level Shifting         CNVShift        .... on
   Level shift para.    LevelShift      ....    0.2500
   Turn off err/grad.   ShiftErr        ....    0.0010
 Zerner damping         CNVZerner       .... off
 Static damping         CNVDamp         .... on
   Fraction old density DampFac         ....    0.7000
   Max. Damping (<1)    DampMax         ....    0.9800
   Min. Damping (>=0)   DampMin         ....    0.0000
   Turn off err/grad.   DampErr         ....    0.1000
 Fernandez-Rico         CNVRico         .... off

SCF Procedure:
 Maximum # iterations   MaxIter         ....   125
 SCF integral mode      SCFMode         .... Direct
   Integral package                     .... SHARK and LIBINT hybrid scheme
 Reset frequency        DirectResetFreq ....    20
 Integral Threshold     Thresh          ....  2.500e-11 Eh
 Primitive CutOff       TCut            ....  2.500e-12 Eh

Convergence Tolerance:
 Convergence Check Mode ConvCheckMode   .... Total+1el-Energy
 Convergence forced     ConvForced      .... 0
 Energy Change          TolE            ....  1.000e-08 Eh
 1-El. energy change                    ....  1.000e-05 Eh
 DIIS Error             TolErr          ....  5.000e-07


Diagonalization of the overlap matrix:
Smallest eigenvalue                        ... 1.399e-03
Time for diagonalization                   ...    0.005 sec
Threshold for overlap eigenvalues          ... 1.000e-08
Number of eigenvalues below threshold      ... 0
Time for construction of square roots      ...    0.002 sec
Total time needed                          ...    0.008 sec

--------------------------------
INITIAL GUESS: MINIMAL BASIS EHT
--------------------------------
The minimal basis has 70 functions
EHT matrix was diagonalized
Basis set overlap was calculated now projecting the orbitals
Using GuessMode=FMatrix for the initial guess
C*T matrix was formed
Effective Fockian was calculated
Effective Fockian was diagonalized
Initial density was built
                      ------------------
                      INITIAL GUESS DONE
                      ------------------
-------------------
DFT GRID GENERATION
-------------------

General Integration Accuracy     IntAcc      ... 4.159
Radial Grid Type                 RadialGrid  ... OptM3 with GC (2021)
Angular Grid (max. ang.)         AngularGrid ... 3 (Lebedev-194)
Angular grid pruning method      GridPruning ... 4 (adaptive)
Weight generation scheme         WeightScheme... Becke
Basis function cutoff            BFCut       ... 1.0000e-11
Integration weight cutoff        WCut        ... 1.0000e-14
Angular grids for H and He will be reduced by one unit
Partially contracted basis set               ... off
Rotationally invariant grid construction     ... off

Total number of grid points                  ...    48120
Total number of batches                      ...      765
Average number of points per batch           ...       62
Average number of grid points per atom       ...     2291
Time for grid setup =    0.186 sec

--------------------
COSX GRID GENERATION
--------------------

GRIDX 1
-------
General Integration Accuracy     IntAcc      ... 3.816
Radial Grid Type                 RadialGrid  ... OptM3 with GC (2021)
Angular Grid (max. ang.)         AngularGrid ... 1 (Lebedev-50)
Angular grid pruning method      GridPruning ... 4 (adaptive)
Weight generation scheme         WeightScheme... Becke
Basis function cutoff            BFCut       ... 1.0000e-11
Integration weight cutoff        WCut        ... 1.0000e-14
Angular grids for H and He will be reduced by one unit
Partially contracted basis set               ... on
Rotationally invariant grid construction     ... off

Total number of grid points                  ...    12284
Total number of batches                      ...      203
Average number of points per batch           ...       60
Average number of grid points per atom       ...      585
UseSFitting                                  ... on

GRIDX 2
-------
General Integration Accuracy     IntAcc      ... 4.020
Radial Grid Type                 RadialGrid  ... OptM3 with GC (2021)
Angular Grid (max. ang.)         AngularGrid ... 2 (Lebedev-110)
Angular grid pruning method      GridPruning ... 4 (adaptive)
Weight generation scheme         WeightScheme... Becke
Basis function cutoff            BFCut       ... 1.0000e-11
Integration weight cutoff        WCut        ... 1.0000e-14
Angular grids for H and He will be reduced by one unit
Partially contracted basis set               ... on
Rotationally invariant grid construction     ... off

Total number of grid points                  ...    25923
Total number of batches                      ...      415
Average number of points per batch           ...       62
Average number of grid points per atom       ...     1234
UseSFitting                                  ... on

GRIDX 3
-------
General Integration Accuracy     IntAcc      ... 4.338
Radial Grid Type                 RadialGrid  ... OptM3 with GC (2021)
Angular Grid (max. ang.)         AngularGrid ... 3 (Lebedev-194)
Angular grid pruning method      GridPruning ... 4 (adaptive)
Weight generation scheme         WeightScheme... Becke
Basis function cutoff            BFCut       ... 1.0000e-11
Integration weight cutoff        WCut        ... 1.0000e-14
Angular grids for H and He will be reduced by one unit
Partially contracted basis set               ... on
Rotationally invariant grid construction     ... off

Total number of grid points                  ...    56754
Total number of batches                      ...      895
Average number of points per batch           ...       63
Average number of grid points per atom       ...     2703
UseSFitting                                  ... on

Time for X-Grid setup             =    0.413 sec

--------------
SCF ITERATIONS
--------------
ITER       Energy         Delta-E        Max-DP      RMS-DP      [F,P]     Damp
               ***  Starting incremental Fock matrix formation  ***
  0  -1102.5281915462   0.000000000000 0.33223722  0.00547877  0.4741493 0.7000
  1  -1103.0952568037  -0.567065257489 0.12526123  0.00385725  0.2985252 0.7000
  2  -1103.4696737966  -0.374416992832 0.10744837  0.00290248  0.2036507 0.7000
                               ***Turning on DIIS***
  3  -1103.7532790377  -0.283605241165 0.08080207  0.00218511  0.1442912 0.7000
  4  -1103.9578845983  -0.204605560589 0.05547091  0.00159986  0.1023042 0.7000
  5  -1104.1028890250  -0.145004426646 0.13514747  0.00391091  0.0720412 0.0000
  6  -1104.4511835821  -0.348294557127 0.00661760  0.00027394  0.0079504 0.0000
  7  -1104.4521208322  -0.000937250114 0.00804514  0.00019092  0.0051590 0.0000
  8  -1104.4525643542  -0.000443522017 0.00697880  0.00017566  0.0038492 0.0000
  9  -1104.4528977968  -0.000333442614 0.00616531  0.00013799  0.0033376 0.0000
 10  -1104.4531027645  -0.000204967624 0.00618919  0.00013034  0.0028738 0.0000
 11  -1104.4532551105  -0.000152346021 0.00561789  0.00011498  0.0023513 0.0000
 12  -1104.4533624850  -0.000107374510 0.00570468  0.00011287  0.0018582 0.0000
 13  -1104.4534434839  -0.000080998920 0.00500162  0.00009730  0.0013410 0.0000
 14  -1104.4534932191  -0.000049735224 0.00363297  0.00007086  0.0010025 0.0000
 15  -1104.4535179645  -0.000024745417 0.00584437  0.00012091  0.0006973 0.0000
               *** Restarting incremental Fock matrix formation ***
                                   *** Resetting DIIS ***
 16  -1104.4535211364  -0.000003171818 0.00059615  0.00001912  0.0001685 0.0000
 17  -1104.4535217132  -0.000000576812 0.00016940  0.00000518  0.0001733 0.0000
 18  -1104.4535218770  -0.000000163813 0.00013904  0.00000299  0.0000915 0.0000
 19  -1104.4535219426  -0.000000065615 0.00004602  0.00000138  0.0000233 0.0000
 20  -1104.4535219547  -0.000000012106 0.00004690  0.00000125  0.0000179 0.0000
 21  -1104.4535219630  -0.000000008268 0.00004259  0.00000104  0.0000126 0.0000
 22  -1104.4535219697  -0.000000006682 0.00003557  0.00000078  0.0000076 0.0000
 23  -1104.4535219651   0.000000004517 0.00001442  0.00000026  0.0000034 0.0000
 24  -1104.4535219669  -0.000000001749 0.00000502  0.00000008  0.0000016 0.0000
 25  -1104.4535219650   0.000000001909 0.00000404  0.00000007  0.0000010 0.0000
                            ***DIIS convergence achieved***

               *****************************************************
               *                     SUCCESS                       *
               *           SCF CONVERGED AFTER  26 CYCLES          *
               *****************************************************

Old exchange energy                            =    -36.307210888 Eh
New exchange energy                            =    -36.307227046 Eh
Exchange energy change after final integration =     -0.000016157 Eh
Total energy after final integration           =  -1104.453538114 Eh
Final COS-X integration done in                =     1.826 sec

----------------
TOTAL SCF ENERGY
----------------

Total Energy       :        -1104.45353811 Eh          -30053.70867 eV

Components:
Nuclear Repulsion  :          588.68973043 Eh           16019.06196 eV
Electronic Energy  :        -1693.14326854 Eh          -46072.77063 eV
One Electron Energy:        -2662.92861592 Eh          -72461.97153 eV
Two Electron Energy:          969.78534738 Eh           26389.20090 eV
Max COSX asymmetry :            0.00000541 Eh               0.00015 eV

Virial components:
Potential Energy   :        -2205.72641769 Eh          -60020.86723 eV
Kinetic Energy     :         1101.27287957 Eh           29967.15855 eV
Virial Ratio       :            2.00288817


DFT components:
N(Alpha)           :       40.999703580144 electrons
N(Beta)            :       40.999703580144 electrons
N(Total)           :       81.999407160287 electrons
E(X)               :      -48.416543394030 Eh       
E(C)               :       -3.772844675937 Eh       
E(XC)              :      -52.189388069967 Eh       
DFET-embed. en.    :        0.000000000000 Eh       

---------------
SCF CONVERGENCE
---------------

  Last Energy change         ...    7.7503e-09  Tolerance :   1.0000e-08
  Last MAX-Density change    ...    0.0000e+00  Tolerance :   1.0000e-07
  Last RMS-Density change    ...    0.0000e+00  Tolerance :   5.0000e-09
  Last DIIS Error            ...    5.1106e-07  Tolerance :   5.0000e-07

             **** THE GBW FILE WAS UPDATED (reaction-5-dhsgs_optts_Compound_1.gbw) ****
             **** DENSITY reaction-5-dhsgs_optts_Compound_1.scfp WAS UPDATED ****
             **** ENERGY FILE WAS UPDATED (reaction-5-dhsgs_optts_Compound_1.en.tmp) ****
             **** THE GBW FILE WAS UPDATED (reaction-5-dhsgs_optts_Compound_1.gbw) ****
             **** DENSITY reaction-5-dhsgs_optts_Compound_1.scfp WAS UPDATED ****
----------------
ORBITAL ENERGIES
----------------

  NO   OCC          E(Eh)            E(eV) 
   0   2.0000    -162.819659     -4430.5482 
   1   2.0000     -18.126683      -493.2521 
   2   2.0000     -14.968889      -407.3242 
   3   2.0000     -14.959663      -407.0731 
   4   2.0000     -14.958071      -407.0298 
   5   2.0000     -14.860503      -404.3748 
   6   2.0000     -14.859789      -404.3554 
   7   2.0000     -10.637925      -289.4727 
   8   2.0000     -10.625205      -289.1265 
   9   2.0000     -10.624251      -289.1006 
  10   2.0000     -10.620984      -289.0117 
  11   2.0000     -10.615409      -288.8600 
  12   2.0000     -10.553747      -287.1821 
  13   2.0000      -2.355485       -64.0960 
  14   2.0000      -1.514397       -41.2088 
  15   2.0000      -1.500599       -40.8334 
  16   2.0000      -1.494388       -40.6644 
  17   2.0000      -1.308625       -35.6095 
  18   2.0000      -1.185608       -32.2620 
  19   2.0000      -1.022858       -27.8334 
  20   2.0000      -0.979313       -26.6485 
  21   2.0000      -0.923937       -25.1416 
  22   2.0000      -0.889757       -24.2115 
  23   2.0000      -0.840251       -22.8644 
  24   2.0000      -0.801828       -21.8188 
  25   2.0000      -0.748396       -20.3649 
  26   2.0000      -0.702220       -19.1084 
  27   2.0000      -0.673070       -18.3152 
  28   2.0000      -0.656011       -17.8510 
  29   2.0000      -0.654558       -17.8114 
  30   2.0000      -0.647744       -17.6260 
  31   2.0000      -0.601574       -16.3697 
  32   2.0000      -0.596794       -16.2396 
  33   2.0000      -0.593878       -16.1602 
  34   2.0000      -0.589900       -16.0520 
  35   2.0000      -0.582508       -15.8509 
  36   2.0000      -0.516177       -14.0459 
  37   2.0000      -0.498643       -13.5688 
  38   2.0000      -0.483958       -13.1692 
  39   2.0000      -0.432783       -11.7766 
  40   2.0000      -0.334093        -9.0911 
  41   0.0000      -0.170074        -4.6279 
  42   0.0000      -0.156888        -4.2691 
  43   0.0000      -0.141260        -3.8439 
  44   0.0000      -0.124150        -3.3783 
  45   0.0000      -0.117192        -3.1890 
  46   0.0000      -0.105445        -2.8693 
  47   0.0000      -0.082050        -2.2327 
  48   0.0000      -0.065115        -1.7719 
  49   0.0000      -0.058204        -1.5838 
  50   0.0000       0.001896         0.0516 
  51   0.0000       0.017512         0.4765 
  52   0.0000       0.027843         0.7576 
  53   0.0000       0.044817         1.2195 
  54   0.0000       0.048540         1.3208 
  55   0.0000       0.048906         1.3308 
  56   0.0000       0.065891         1.7930 
  57   0.0000       0.069863         1.9011 
  58   0.0000       0.079613         2.1664 
  59   0.0000       0.082201         2.2368 
  60   0.0000       0.084422         2.2972 
  61   0.0000       0.090648         2.4667 
  62   0.0000       0.098163         2.6711 
  63   0.0000       0.103633         2.8200 
  64   0.0000       0.128788         3.5045 
  65   0.0000       0.141062         3.8385 
  66   0.0000       0.166451         4.5294 
  67   0.0000       0.190327         5.1790 
  68   0.0000       0.225158         6.1268 
  69   0.0000       0.230078         6.2607 
  70   0.0000       0.302802         8.2397 
  71   0.0000       0.325458         8.8562 
  72   0.0000       0.343860         9.3569 
  73   0.0000       0.355284         9.6678 
  74   0.0000       0.373236        10.1563 
  75   0.0000       0.398209        10.8358 
  76   0.0000       0.402264        10.9462 
  77   0.0000       0.414483        11.2786 
  78   0.0000       0.424481        11.5507 
  79   0.0000       0.429991        11.7007 
  80   0.0000       0.433545        11.7974 
  81   0.0000       0.439555        11.9609 
  82   0.0000       0.463130        12.6024 
  83   0.0000       0.482842        13.1388 
  84   0.0000       0.496005        13.4970 
  85   0.0000       0.500300        13.6139 
  86   0.0000       0.520833        14.1726 
  87   0.0000       0.535530        14.5725 
  88   0.0000       0.554827        15.0976 
  89   0.0000       0.579318        15.7641 
  90   0.0000       0.588819        16.0226 
  91   0.0000       0.629431        17.1277 
  92   0.0000       0.651045        17.7158 
  93   0.0000       0.667779        18.1712 
  94   0.0000       0.686540        18.6817 
  95   0.0000       0.747871        20.3506 
  96   0.0000       0.772013        21.0075 
  97   0.0000       0.778792        21.1920 
  98   0.0000       0.796471        21.6731 
  99   0.0000       0.812467        22.1084 
 100   0.0000       0.833702        22.6862 
 101   0.0000       0.856864        23.3164 
 102   0.0000       0.860749        23.4222 
 103   0.0000       0.868569        23.6350 
 104   0.0000       0.879403        23.9298 
 105   0.0000       0.886256        24.1163 
 106   0.0000       0.893265        24.3070 
 107   0.0000       0.911133        24.7932 
 108   0.0000       0.917494        24.9663 
 109   0.0000       0.928019        25.2527 
 110   0.0000       0.949775        25.8447 
 111   0.0000       0.955031        25.9877 
 112   0.0000       0.966199        26.2916 
 113   0.0000       0.970913        26.4199 
 114   0.0000       0.978600        26.6291 
 115   0.0000       0.992512        27.0076 
 116   0.0000       1.032915        28.1070 
 117   0.0000       1.072654        29.1884 
 118   0.0000       1.103675        30.0325 
 119   0.0000       1.126660        30.6580 
 120   0.0000       1.158216        31.5167 
 121   0.0000       1.179986        32.1091 
 122   0.0000       1.226044        33.3623 
 123   0.0000       1.240857        33.7654 
 124   0.0000       1.256284        34.1852 
 125   0.0000       1.315727        35.8027 
 126   0.0000       1.335514        36.3412 
 127   0.0000       1.376308        37.4513 
 128   0.0000       1.466689        39.9106 
 129   0.0000       1.494843        40.6767 
 130   0.0000       1.543670        42.0054 
 131   0.0000       1.571684        42.7677 
 132   0.0000       1.701352        46.2961 
 133   0.0000       1.732818        47.1524 
 134   0.0000       1.777108        48.3576 
 135   0.0000       1.826234        49.6944 
 136   0.0000       1.851373        50.3784 
 137   0.0000       1.862494        50.6810 
 138   0.0000       1.880075        51.1594 
 139   0.0000       1.892365        51.4939 
 140   0.0000       1.919626        52.2357 
 141   0.0000       1.948929        53.0331 
 142   0.0000       1.958002        53.2800 
 143   0.0000       1.980964        53.9048 
 144   0.0000       2.041164        55.5429 
 145   0.0000       2.056122        55.9499 
 146   0.0000       2.107526        57.3487 
 147   0.0000       2.113186        57.5027 
 148   0.0000       2.140468        58.2451 
 149   0.0000       2.151078        58.5338 
 150   0.0000       2.186787        59.5055 
 151   0.0000       2.209131        60.1135 
 152   0.0000       2.212709        60.2109 
 153   0.0000       2.233783        60.7843 
 154   0.0000       2.270186        61.7749 
 155   0.0000       2.292294        62.3765 
 156   0.0000       2.368225        64.4427 
 157   0.0000       2.375347        64.6365 
 158   0.0000       2.434833        66.2552 
 159   0.0000       2.512760        68.3757 
 160   0.0000       2.531430        68.8837 
 161   0.0000       2.654634        72.2363 
 162   0.0000       2.715945        73.9046 
 163   0.0000       2.737051        74.4789 
 164   0.0000       2.946484        80.1779 
 165   0.0000       3.012135        81.9644 
 166   0.0000       3.078529        83.7710 
 167   0.0000      13.366213       363.7131 
 168   0.0000      13.566964       369.1759 
 169   0.0000      13.610814       370.3691 
 170   0.0000      13.629800       370.8857 
 171   0.0000      13.789114       375.2209 
 172   0.0000      13.966561       380.0494 
 173   0.0000      19.127651       520.4898 
 174   0.0000      19.294096       525.0190 

                    ********************************
                    * MULLIKEN POPULATION ANALYSIS *
                    ********************************

-----------------------
MULLIKEN ATOMIC CHARGES
-----------------------
   0 Sc:    0.635557
   1 C :    0.163940
   2 N :   -0.411881
   3 C :   -0.067063
   4 C :   -0.060982
   5 N :   -0.396233
   6 C :   -0.530847
   7 H :    0.286094
   8 H :    0.279982
   9 H :    0.267051
  10 C :   -0.518871
  11 H :    0.249468
  12 H :    0.268368
  13 H :    0.280150
  14 H :    0.301136
  15 H :    0.301574
  16 C :   -0.924890
  17 H :    0.251675
  18 H :    0.297463
  19 H :    0.230704
  20 H :    0.097606
Sum of atomic charges:    1.0000000

--------------------------------
MULLIKEN REDUCED ORBITAL CHARGES
--------------------------------
  0 Scs       :     6.444289  s :     6.444289
      pz      :     4.134963  p :    12.306651
      px      :     4.046997
      py      :     4.124691
      dz2     :     0.232682  d :     1.578960
      dxz     :     0.089127
      dyz     :     0.081020
      dx2y2   :     0.126274
      dxy     :     1.049857
      f0      :     0.007704  f :     0.034543
      f+1     :     0.003303
      f-1     :     0.005733
      f+2     :     0.001749
      f-2     :     0.004291
      f+3     :     0.005927
      f-3     :     0.005836
  1 C s       :     3.248167  s :     3.248167
      pz      :     0.961274  p :     2.520449
      px      :     0.844333
      py      :     0.714842
      dz2     :     0.008483  d :     0.067443
      dxz     :     0.010829
      dyz     :     0.020364
      dx2y2   :     0.016407
      dxy     :     0.011360
  2 N s       :     3.530259  s :     3.530259
      pz      :     1.269785  p :     3.829134
      px      :     1.336409
      py      :     1.222940
      dz2     :     0.011819  d :     0.052489
      dxz     :     0.007059
      dyz     :     0.012020
      dx2y2   :     0.010905
      dxy     :     0.010686
  3 C s       :     3.163203  s :     3.163203
      pz      :     0.908594  p :     2.849372
      px      :     1.037388
      py      :     0.903390
      dz2     :     0.011052  d :     0.054489
      dxz     :     0.010515
      dyz     :     0.013050
      dx2y2   :     0.008006
      dxy     :     0.011865
  4 C s       :     3.162552  s :     3.162552
      pz      :     0.909420  p :     2.843873
      px      :     0.888284
      py      :     1.046169
      dz2     :     0.010917  d :     0.054558
      dxz     :     0.011448
      dyz     :     0.012158
      dx2y2   :     0.012579
      dxy     :     0.007457
  5 N s       :     3.526477  s :     3.526477
      pz      :     1.258952  p :     3.816962
      px      :     1.320936
      py      :     1.237074
      dz2     :     0.011875  d :     0.052794
      dxz     :     0.009150
      dyz     :     0.010201
      dx2y2   :     0.010028
      dxy     :     0.011540
  6 C s       :     3.371372  s :     3.371372
      pz      :     1.172663  p :     3.110640
      px      :     0.992693
      py      :     0.945284
      dz2     :     0.005866  d :     0.048835
      dxz     :     0.010470
      dyz     :     0.010471
      dx2y2   :     0.006541
      dxy     :     0.015487
  7 H s       :     0.713906  s :     0.713906
  8 H s       :     0.720018  s :     0.720018
  9 H s       :     0.732949  s :     0.732949
 10 C s       :     3.365280  s :     3.365280
      pz      :     1.170967  p :     3.104598
      px      :     1.124840
      py      :     0.808791
      dz2     :     0.006198  d :     0.048994
      dxz     :     0.008581
      dyz     :     0.011651
      dx2y2   :     0.013971
      dxy     :     0.008594
 11 H s       :     0.750532  s :     0.750532
 12 H s       :     0.731632  s :     0.731632
 13 H s       :     0.719850  s :     0.719850
 14 H s       :     0.698864  s :     0.698864
 15 H s       :     0.698426  s :     0.698426
 16 C s       :     3.467139  s :     3.467139
      pz      :     1.059898  p :     3.429192
      px      :     1.138970
      py      :     1.230323
      dz2     :     0.005465  d :     0.028559
      dxz     :     0.006915
      dyz     :     0.003833
      dx2y2   :     0.009543
      dxy     :     0.002804
 17 H s       :     0.748325  s :     0.748325
 18 H s       :     0.702537  s :     0.702537
 19 H s       :     0.769296  s :     0.769296
 20 H s       :     0.902394  s :     0.902394


                     *******************************
                     * LOEWDIN POPULATION ANALYSIS *
                     *******************************

----------------------
LOEWDIN ATOMIC CHARGES
----------------------
   0 Sc:    0.293152
   1 C :   -0.050738
   2 N :   -0.003473
   3 C :   -0.082947
   4 C :   -0.082668
   5 N :    0.003490
   6 C :   -0.237507
   7 H :    0.157297
   8 H :    0.153735
   9 H :    0.157420
  10 C :   -0.238504
  11 H :    0.146730
  12 H :    0.148173
  13 H :    0.157545
  14 H :    0.167691
  15 H :    0.168289
  16 C :   -0.468071
  17 H :    0.173821
  18 H :    0.163292
  19 H :    0.168369
  20 H :    0.104901

-------------------------------
LOEWDIN REDUCED ORBITAL CHARGES
-------------------------------
  0 Scs       :     6.409416  s :     6.409416
      pz      :     4.180241  p :    12.384116
      px      :     4.073126
      py      :     4.130749
      dz2     :     0.304153  d :     1.825088
      dxz     :     0.115795
      dyz     :     0.110557
      dx2y2   :     0.148517
      dxy     :     1.146067
      f0      :     0.019969  f :     0.088228
      f+1     :     0.008862
      f-1     :     0.012819
      f+2     :     0.003421
      f-2     :     0.010918
      f+3     :     0.018680
      f-3     :     0.013558
  1 C s       :     2.966890  s :     2.966890
      pz      :     1.106112  p :     2.937345
      px      :     0.944037
      py      :     0.887196
      dz2     :     0.016879  d :     0.146503
      dxz     :     0.021818
      dyz     :     0.043742
      dx2y2   :     0.036508
      dxy     :     0.027557
  2 N s       :     3.046094  s :     3.046094
      pz      :     1.279941  p :     3.830994
      px      :     1.319986
      py      :     1.231068
      dz2     :     0.028035  d :     0.126384
      dxz     :     0.018483
      dyz     :     0.029662
      dx2y2   :     0.024826
      dxy     :     0.025378
  3 C s       :     2.885487  s :     2.885487
      pz      :     0.990573  p :     3.076186
      px      :     1.058942
      py      :     1.026671
      dz2     :     0.024937  d :     0.121275
      dxz     :     0.020664
      dyz     :     0.030709
      dx2y2   :     0.017907
      dxy     :     0.027058
  4 C s       :     2.885111  s :     2.885111
      pz      :     0.991169  p :     3.075956
      px      :     0.989327
      py      :     1.095461
      dz2     :     0.024653  d :     0.121601
      dxz     :     0.026612
      dyz     :     0.024902
      dx2y2   :     0.027124
      dxy     :     0.018310
  5 N s       :     3.044622  s :     3.044622
      pz      :     1.272378  p :     3.824648
      px      :     1.300263
      py      :     1.252007
      dz2     :     0.028198  d :     0.127240
      dxz     :     0.021750
      dyz     :     0.027299
      dx2y2   :     0.023485
      dxy     :     0.026508
  6 C s       :     2.940371  s :     2.940371
      pz      :     1.149001  p :     3.203589
      px      :     1.042118
      py      :     1.012470
      dz2     :     0.010314  d :     0.093547
      dxz     :     0.018807
      dyz     :     0.019727
      dx2y2   :     0.013945
      dxy     :     0.030754
  7 H s       :     0.842703  s :     0.842703
  8 H s       :     0.846265  s :     0.846265
  9 H s       :     0.842580  s :     0.842580
 10 C s       :     2.939925  s :     2.939925
      pz      :     1.153622  p :     3.204643
      px      :     1.128903
      py      :     0.922119
      dz2     :     0.010999  d :     0.093935
      dxz     :     0.014403
      dyz     :     0.022971
      dx2y2   :     0.027842
      dxy     :     0.017721
 11 H s       :     0.853270  s :     0.853270
 12 H s       :     0.851827  s :     0.851827
 13 H s       :     0.842455  s :     0.842455
 14 H s       :     0.832309  s :     0.832309
 15 H s       :     0.831711  s :     0.831711
 16 C s       :     3.000301  s :     3.000301
      pz      :     1.077288  p :     3.419995
      px      :     1.153451
      py      :     1.189256
      dz2     :     0.009432  d :     0.047775
      dxz     :     0.011306
      dyz     :     0.005523
      dx2y2   :     0.016643
      dxy     :     0.004871
 17 H s       :     0.826179  s :     0.826179
 18 H s       :     0.836708  s :     0.836708
 19 H s       :     0.831631  s :     0.831631
 20 H s       :     0.895099  s :     0.895099


                      *****************************
                      * MAYER POPULATION ANALYSIS *
                      *****************************

  NA   - Mulliken gross atomic population
  ZA   - Total nuclear charge
  QA   - Mulliken gross atomic charge
  VA   - Mayer's total valence
  BVA  - Mayer's bonded valence
  FA   - Mayer's free valence

  ATOM       NA         ZA         QA         VA         BVA        FA
  0 Sc    20.3644    21.0000     0.6356     2.5706     2.5706    -0.0000
  1 C      5.8361     6.0000     0.1639     3.2004     3.2004     0.0000
  2 N      7.4119     7.0000    -0.4119     3.3973     3.3973     0.0000
  3 C      6.0671     6.0000    -0.0671     3.7438     3.7438     0.0000
  4 C      6.0610     6.0000    -0.0610     3.7376     3.7376    -0.0000
  5 N      7.3962     7.0000    -0.3962     3.3855     3.3855     0.0000
  6 C      6.5308     6.0000    -0.5308     3.5907     3.5907    -0.0000
  7 H      0.7139     1.0000     0.2861     0.8865     0.8865     0.0000
  8 H      0.7200     1.0000     0.2800     0.8811     0.8811     0.0000
  9 H      0.7329     1.0000     0.2671     0.8974     0.8974    -0.0000
 10 C      6.5189     6.0000    -0.5189     3.6230     3.6230     0.0000
 11 H      0.7505     1.0000     0.2495     0.9064     0.9064    -0.0000
 12 H      0.7316     1.0000     0.2684     0.8871     0.8871     0.0000
 13 H      0.7199     1.0000     0.2801     0.8886     0.8886     0.0000
 14 H      0.6989     1.0000     0.3011     0.8790     0.8790     0.0000
 15 H      0.6984     1.0000     0.3016     0.8786     0.8786    -0.0000
 16 C      6.9249     6.0000    -0.9249     3.6353     3.6353    -0.0000
 17 H      0.7483     1.0000     0.2517     0.8937     0.8937     0.0000
 18 H      0.7025     1.0000     0.2975     0.8888     0.8888     0.0000
 19 H      0.7693     1.0000     0.2307     0.9036     0.9036     0.0000
 20 H      0.9024     1.0000     0.0976     0.9635     0.9635    -0.0000

  Mayer bond orders larger than 0.100000
B(  0-Sc,  1-C ) :   0.6210 B(  0-Sc, 16-C ) :   0.8912 B(  0-Sc, 20-H ) :   0.8173 
B(  1-C ,  2-N ) :   1.2370 B(  1-C ,  5-N ) :   1.2383 B(  2-N ,  3-C ) :   1.1437 
B(  2-N , 10-C ) :   0.9122 B(  3-C ,  4-C ) :   1.6425 B(  3-C , 14-H ) :   0.8790 
B(  4-C ,  5-N ) :   1.1388 B(  4-C , 15-H ) :   0.8793 B(  5-N ,  6-C ) :   0.8983 
B(  6-C ,  7-H ) :   0.8961 B(  6-C ,  8-H ) :   0.8906 B(  6-C ,  9-H ) :   0.8983 
B( 10-C , 11-H ) :   0.9150 B( 10-C , 12-H ) :   0.8968 B( 10-C , 13-H ) :   0.8987 
B( 16-C , 17-H ) :   0.8581 B( 16-C , 18-H ) :   0.8989 B( 16-C , 19-H ) :   0.8310 
B( 16-C , 20-H ) :   0.1478 

-------
TIMINGS
-------

Total SCF time: 0 days 0 hours 0 min 24 sec 

Total time                  ....      24.413 sec
Sum of individual times     ....      24.155 sec  ( 98.9%)

Fock matrix formation       ....      22.011 sec  ( 90.2%)
  Split-RI-J                ....       3.120 sec  ( 14.2% of F)
  Chain of spheres X        ....      16.082 sec  ( 73.1% of F)
  XC integration            ....       2.391 sec  ( 10.9% of F)
    Basis function eval.    ....       0.918 sec  ( 38.4% of XC)
    Density eval.           ....       0.459 sec  ( 19.2% of XC)
    XC-Functional eval.     ....       0.229 sec  (  9.6% of XC)
    XC-Potential eval.      ....       0.450 sec  ( 18.8% of XC)
Diagonalization             ....       0.744 sec  (  3.0%)
Density matrix formation    ....       0.010 sec  (  0.0%)
Population analysis         ....       0.034 sec  (  0.1%)
Initial guess               ....       0.022 sec  (  0.1%)
Orbital Transformation      ....       0.000 sec  (  0.0%)
Orbital Orthonormalization  ....       0.000 sec  (  0.0%)
DIIS solution               ....       0.736 sec  (  3.0%)
Grid generation             ....       0.599 sec  (  2.5%)

Maximum memory used throughout the entire SCF-calculation: 69.7 MB


-------------------------------------------------------------------------------
                          DFT DISPERSION CORRECTION                            
                                                                               
                              DFTD3 V3.1  Rev 1                                
                          USING Becke-Johnson damping                          
-------------------------------------------------------------------------------
The PBEh-3c composite method is recognized
Using three-body term ABC
Active option DFTDOPT                   ...         4   

molecular C6(AA) [au] = 5397.764750 


            DFT-D V3
 parameters
 s6 scaling factor         :     1.0000 
 a1 scaling factor         :     0.4860 
 s8 scaling factor         :     0.0000 
 a2 scaling factor         :     4.5000 
 Damping factor alpha9(ATM):    16.0000 
 ad hoc parameters k1-k3   :    16.0000     1.3333    -4.0000 

 Edisp/kcal,au: -7.211511238242  -0.011492273451 
 E6   /kcal   :  -7.262400317 
 E8   /kcal   :  -0.000000000 
 E6(ABC)      :   0.050889078 
 % E8         :   0.000000000 
 % E6(ABC)    :  -0.705664549 

-------------------------   ----------------
Dispersion correction           -0.011492273
-------------------------   ----------------

------------------   -----------------
gCP correction             0.040403701
------------------   -----------------

-------------------------   --------------------
FINAL SINGLE POINT ENERGY     -1104.424626686661
-------------------------   --------------------



           ************************************************************
           *        Program running with 8 parallel MPI-processes     *
           *              working on a common directory               *
           ************************************************************
------------------------------------------------------------------------------
                         ORCA SCF GRADIENT CALCULATION
------------------------------------------------------------------------------

 ... reading COSX grid (gridx3)
Gradient of the Kohn-Sham DFT energy:
Kohn-Sham wavefunction type      ... RKS
Hartree-Fock exchange scaling    ...    0.420
Number of operators              ...    1
Number of atoms                  ...   21
Basis set dimensions             ...  175
Integral neglect threshold       ... 2.5e-11
Integral primitive cutoff        ... 2.5e-12
SHARK Integral package           ... ON

Nuc. rep. gradient       (SHARK) ... done (  0.0 sec)
HCore & Overlap gradient (SHARK) ... done (  0.1 sec)
RI-J gradient            (SHARK) ... done (  0.5 sec)
COSX-gradient                    ... done (  2.2 sec)
Exchange-correlation gradient    ... done
Dispersion correction            ... done
gCP correction                   ... done

------------------
CARTESIAN GRADIENT
------------------

   1   Sc  :    0.003743469   -0.010970842    0.004072531
   2   C   :    0.001175601   -0.001229721    0.000584003
   3   N   :    0.000581020   -0.000554706    0.000142135
   4   C   :   -0.000310962    0.000702934   -0.000443241
   5   C   :   -0.000815864    0.000339499   -0.000160336
   6   N   :    0.000768935   -0.000868955   -0.000103566
   7   C   :    0.000505838   -0.000690051   -0.000687063
   8   H   :    0.000302573   -0.000018580   -0.000668214
   9   H   :   -0.000128690   -0.000662931   -0.000022913
  10   H   :    0.000215052   -0.000443774   -0.000290216
  11   C   :   -0.000068537   -0.000721803    0.000657740
  12   H   :   -0.000414570   -0.000697959    0.000445034
  13   H   :    0.000305059    0.000036003    0.000486199
  14   H   :   -0.000372737   -0.000422688    0.000700342
  15   H   :   -0.001136078    0.000224828   -0.000283525
  16   H   :   -0.000861172    0.000301339   -0.001061099
  17   C   :    0.004965361    0.004803146   -0.000976665
  18   H   :    0.004088282    0.001517940    0.001120846
  19   H   :   -0.002847514    0.002859601   -0.000566194
  20   H   :    0.009701670    0.001157969    0.000532384
  21   H   :   -0.018863556    0.005257819   -0.002754202

Difference to translation invariance:
           :    0.0005331814   -0.0000809332    0.0007239787

Difference to rotation invariance:
           :   -0.0006249852   -0.0007803727   -0.0002652034

Norm of the cartesian gradient     ...    0.0271853124
RMS gradient                       ...    0.0034250274
MAX gradient                       ...    0.0188635562

-------
TIMINGS
-------

Total SCF gradient time            ...        3.637 sec

One electron gradient       ....       0.065 sec  (  1.8%)
RI-J Coulomb gradient       ....       0.469 sec  ( 12.9%)
COSX gradient               ....       2.232 sec  ( 61.4%)
XC gradient                 ....       0.469 sec  ( 12.9%)

Maximum memory used throughout the entire SCFGRAD-calculation: 43.1 MB


           ************************************************************
           *        Program running with 8 parallel MPI-processes     *
           *              working on a common directory               *
           ************************************************************

-------------------------------------------------------------------------------
                               ORCA SCF HESSIAN
-------------------------------------------------------------------------------

                   --------- SHARK INITIALIZATION DONE ---------

Hessian of the Kohn-Sham DFT energy:
Kohn-Sham wavefunction type                      ... RKS
Hartree-Fock exchange scaling                    ...    0.420
Number of operators                              ...    1
Number of atoms                                  ...   21
Basis set dimensions                             ...  175
Integral neglect threshold                       ... 2.5e-11
Integral primitive cutoff                        ... 2.5e-12

Setting up DFT Hessian calculations              ... 

HESS GRID
---------

General Integration Accuracy     IntAcc      ... 4.388
Radial Grid Type                 RadialGrid  ... OptM3 with GC (2021)
Angular Grid (max. ang.)         AngularGrid ... 4 (Lebedev-302)
Angular grid pruning method      GridPruning ... 4 (adaptive)
Weight generation scheme         WeightScheme... Becke
Basis function cutoff            BFCut       ... 1.0000e-11
Integration weight cutoff        WCut        ... 1.0000e-14
Angular grids for H and He will be reduced by one unit
Partially contracted basis set               ... off
Rotationally invariant grid construction     ... off

Total number of grid points                  ...    97573
Total number of batches                      ...     1534
Average number of points per batch           ...       63
Average number of grid points per atom       ...     4646

Building densities                               ... done   (      0.0 sec)
Calculating rho(r) on the grid                   ... done   (      0.1 sec)
Building xc-kernel on the grid                   ... done   (      0.0 sec)
                                                     done   (      0.8 sec)

Nuclear repulsion Hessian  (SHARK)               ... done   (      0.0 sec)

----------------------------------------------
Forming right-hand sides of CP-SCF equations     ...
----------------------------------------------
One electron integral derivatives  (SHARK)       ... done   (      0.1 sec)
Transforming the overlap derivative matrices     ... done   (      0.0 sec)
Making the Q(x) pseudodensities                  ... done   (      0.0 sec)
Adding the E*S(x)*S(y) terms to the Hessian      ... done   (      0.0 sec)
Calculating energy weighted overlap derivatives  ... done   (      0.0 sec)
Two electron integral derivatives (SHARK-RI)     ... done   (      9.0 sec)
Exchange-correlation integral derivatives        ... done   (     10.7 sec)
tr(F(y)Q(x)) contribution to the Hessian         ... done   (      0.0 sec)
Response fock operator R(S(x)) (SHARK-RI)        ... done   (      8.4 sec)
XC Response fock operator R(S(x))                ... done   (      4.1 sec)
tr(F(y)S(x)) contribution to the Hessian         ... done   (      0.0 sec)
Transforming and finalizing RHSs                 ... done   (      0.1 sec)

----------------------------------------------
Solving the CP-SCF equations (RI)                ...
----------------------------------------------
     CP-SCF ITERATION   0:   1.7154e-01 (   2.8 sec   0/ 63 done)
     CP-SCF ITERATION   1:   7.4952e-02 (   2.8 sec   0/ 63 done)
     CP-SCF ITERATION   2:   6.0615e-02 (   2.8 sec   0/ 63 done)
     CP-SCF ITERATION   3:   1.7707e-02 (   2.8 sec   0/ 63 done)
     CP-SCF ITERATION   4:   8.5789e-03 (   2.8 sec   0/ 63 done)
     CP-SCF ITERATION   5:   4.1266e-03 (   2.7 sec   2/ 63 done)
     CP-SCF ITERATION   6:   2.2647e-03 (   2.7 sec  10/ 63 done)
     CP-SCF ITERATION   7:   1.0648e-03 (   2.5 sec  21/ 63 done)
     CP-SCF ITERATION   8:   4.5192e-04 (   2.1 sec  33/ 63 done)
     CP-SCF ITERATION   9:   2.0717e-04 (   1.9 sec  50/ 63 done)
     CP-SCF ITERATION  10:   1.0269e-04 (   1.1 sec  62/ 63 done)
     CP-SCF ITERATION  11:   5.0761e-05 (   0.6 sec  63/ 63 done)
                    *** THE CP-SCF HAS CONVERGED ***

                                                 ... done   (     28.0 sec)
Forming perturbed density Hessian contributions  ... done   (      0.0 sec)
2nd integral derivative contribs (SHARK-RI)      ... done   (     26.4 sec)
Exchange-correlation Hessian                     ... done   (      7.8 sec)
Dispersion correction in the Hessian             ... done   (      0.7 sec)
gCP correction in the Hessian                    ... done   (      0.1 sec)
Dipole derivatives                               ... (center of mass:  0.418393, -0.451452 -0.478320)done   (      0.1 sec)

Total SCF Hessian time: 0 days 0 hours 1 min 36 sec 

Writing the Hessian file to the disk             ... done


Maximum memory used throughout the entire SCFHESS-calculation: 125.7 MB

-----------------------
VIBRATIONAL FREQUENCIES
-----------------------

Scaling factor for frequencies =  1.000000000  (already applied!)

   0:         0.00 cm**-1
   1:         0.00 cm**-1
   2:         0.00 cm**-1
   3:         0.00 cm**-1
   4:         0.00 cm**-1
   5:         0.00 cm**-1
   6:      -919.06 cm**-1 ***imaginary mode***
   7:      -274.93 cm**-1 ***imaginary mode***
   8:      -107.01 cm**-1 ***imaginary mode***
   9:       -36.65 cm**-1 ***imaginary mode***
  10:        39.24 cm**-1
  11:        54.72 cm**-1
  12:       101.09 cm**-1
  13:       132.02 cm**-1
  14:       197.72 cm**-1
  15:       262.12 cm**-1
  16:       280.71 cm**-1
  17:       287.90 cm**-1
  18:       341.68 cm**-1
  19:       386.89 cm**-1
  20:       467.85 cm**-1
  21:       498.30 cm**-1
  22:       635.82 cm**-1
  23:       654.63 cm**-1
  24:       699.22 cm**-1
  25:       774.10 cm**-1
  26:       797.05 cm**-1
  27:       798.58 cm**-1
  28:       918.81 cm**-1
  29:      1063.51 cm**-1
  30:      1082.36 cm**-1
  31:      1129.81 cm**-1
  32:      1133.15 cm**-1
  33:      1174.64 cm**-1
  34:      1176.58 cm**-1
  35:      1181.23 cm**-1
  36:      1249.86 cm**-1
  37:      1285.85 cm**-1
  38:      1430.52 cm**-1
  39:      1432.33 cm**-1
  40:      1446.94 cm**-1
  41:      1464.22 cm**-1
  42:      1499.15 cm**-1
  43:      1512.39 cm**-1
  44:      1515.58 cm**-1
  45:      1531.30 cm**-1
  46:      1542.04 cm**-1
  47:      1554.01 cm**-1
  48:      1557.36 cm**-1
  49:      1562.07 cm**-1
  50:      1639.77 cm**-1
  51:      1677.06 cm**-1
  52:      2940.10 cm**-1
  53:      3079.24 cm**-1
[...]
Dispersion correction           -0.010726469
-------------------------   ----------------

------------------   -----------------
gCP correction             0.041519025
------------------   -----------------

-------------------------   --------------------
FINAL SINGLE POINT ENERGY     -1104.433750025200
-------------------------   --------------------



           ************************************************************
           *        Program running with 8 parallel MPI-processes     *
           *              working on a common directory               *
           ************************************************************
------------------------------------------------------------------------------
                         ORCA SCF GRADIENT CALCULATION
------------------------------------------------------------------------------

 ... reading COSX grid (gridx3)
Gradient of the Kohn-Sham DFT energy:
Kohn-Sham wavefunction type      ... RKS
Hartree-Fock exchange scaling    ...    0.420
Number of operators              ...    1
Number of atoms                  ...   21
Basis set dimensions             ...  175
Integral neglect threshold       ... 2.5e-11
Integral primitive cutoff        ... 2.5e-12
SHARK Integral package           ... ON

Nuc. rep. gradient       (SHARK) ... done (  0.0 sec)
HCore & Overlap gradient (SHARK) ... done (  0.1 sec)
RI-J gradient            (SHARK) ... done (  0.4 sec)
COSX-gradient                    ... done (  2.1 sec)
Exchange-correlation gradient    ... done
Dispersion correction            ... done
gCP correction                   ... done

------------------
CARTESIAN GRADIENT
------------------

   1   Sc  :   -0.000014982    0.000023191   -0.000011768
   2   C   :   -0.000014830    0.000015315   -0.000007104
   3   N   :   -0.000011259    0.000009975   -0.000011423
   4   C   :   -0.000015847    0.000005887   -0.000011165
   5   C   :   -0.000017066    0.000007240   -0.000005641
   6   N   :   -0.000018311    0.000011960   -0.000006158
   7   C   :   -0.000019171    0.000015420    0.000001507
   8   H   :   -0.000019186    0.000015796    0.000002715
   9   H   :   -0.000021562    0.000012298    0.000004334
  10   H   :   -0.000017765    0.000019583    0.000002914
  11   C   :   -0.000009625    0.000011450   -0.000018017
  12   H   :   -0.000008593    0.000015610   -0.000017938
  13   H   :   -0.000011470    0.000008482   -0.000020092
  14   H   :   -0.000009366    0.000013734   -0.000020496
  15   H   :   -0.000015690    0.000002138   -0.000014161
  16   H   :   -0.000020364    0.000003861   -0.000003338
  17   C   :   -0.000008706    0.000030657   -0.000002896
  18   H   :   -0.000008843    0.000034891   -0.000004100
  19   H   :   -0.000014463    0.000028843   -0.000001316
  20   H   :   -0.000008675    0.000028641   -0.000007999
  21   H   :   -0.000013306    0.000029456    0.000004182

Difference to translation invariance:
           :   -0.0002990805    0.0003444272   -0.0001479595

Difference to rotation invariance:
           :    0.0013112813   -0.0005071249    0.0002364435

Norm of the cartesian gradient     ...    0.0001200998
RMS gradient                       ...    0.0000151312
MAX gradient                       ...    0.0000348914

-------
TIMINGS
-------

Total SCF gradient time            ...        3.404 sec

One electron gradient       ....       0.061 sec  (  1.8%)
RI-J Coulomb gradient       ....       0.395 sec  ( 11.6%)
COSX gradient               ....       2.112 sec  ( 62.1%)
XC gradient                 ....       0.464 sec  ( 13.6%)

Maximum memory used throughout the entire SCFGRAD-calculation: 43.0 MB

                            ***************************************
                            *     ORCA property calculations      *
                            ***************************************

                                    ---------------------
                                    Active property flags
                                    ---------------------
   (+) Dipole Moment


------------------------------------------------------------------------------
                       ORCA ELECTRIC PROPERTIES CALCULATION
------------------------------------------------------------------------------

Dipole Moment Calculation                       ... on
Quadrupole Moment Calculation                   ... off
Polarizability Calculation                      ... off
GBWName                                         ... reaction-5-dhsgs_optts_Compound_2.gbw
Electron density                                ... reaction-5-dhsgs_optts_Compound_2.scfp
The origin for moment calculation is the CENTER OF MASS  = ( 0.299484, -0.273957 -0.219388)

-------------
DIPOLE MOMENT
-------------
                                X             Y             Z
Electronic contribution:      3.75025      -3.77133      -3.11041
Nuclear contribution   :     -3.46594       3.04710       2.85538
                        -----------------------------------------
Total Dipole Moment    :      0.28432      -0.72423      -0.25503
                        -----------------------------------------
Magnitude (a.u.)       :      0.81877
Magnitude (Debye)      :      2.08114



--------------------
Rotational spectrum 
--------------------
 
Rotational constants in cm-1:     0.063281     0.026661     0.019836 
Rotational constants in MHz :  1897.108279   799.282652   594.663691 

 Dipole components along the rotational axes: 
x,y,z [a.u.] :    -0.172482    -0.493953    -0.629794 
x,y,z [Debye]:    -0.438414    -1.255529    -1.600810 

 



--------------------------------------------------------------------------------
                   Intrinsic Reaction Coordinate Calculation
--------------------------------------------------------------------------------

System:
Nr. of atoms                        .... 21
Algorithm: SD (steepest descent step) plus correction
Settings:
Max. no of cycles        MaxIter    .... 600
Direction                           .... Forward and backward
Initial displacement Hessian type   .... Read
Hessian Filename                    .... reaction-5-dhsgs_optts_Compound_1.hess
Following Hessian mode              .... 0
Initial displacement type           .... Energy
  Initial displacement energy change.... 2.000 mEh
Coordinate system following type    .... Cartesian
Length of steepest descent step     .... 0.150 bohr
Do parabolic fit 
  if SD step is uphill              .... YES
Do Correction to SD step            .... YES
Scaling for length of correction
  compared to SD step               .... 0.333
Do parabolic fit to SD correction   .... YES
Only interpolate for parabolic fit  .... YES
Do update to length of
  SD step and correction            .... YES
Convergence Tolerances:
  Max. Gradient            TolMAXG  ....  2.0000e-03 Eh/bohr
  RMS Gradient             TolRMSG  ....  5.0000e-04 Eh/bohr
Storing full IRC trajectory in      .... reaction-5-dhsgs_optts_Compound_2_IRC_Full_trj.xyz
Storing forward trajectory in       .... reaction-5-dhsgs_optts_Compound_2_IRC_F_trj.xyz
Storing backward trajectory in      .... reaction-5-dhsgs_optts_Compound_2_IRC_B_trj.xyz


 ...good, the file reaction-5-dhsgs_optts_Compound_1.hess exists
Reading the hessian file           ...... done
Determining length of initial displacement:
  Requested energy change (quadratic behavior): 2.000 mEh
  Resulting scaling factor for initial displacement along normalized TS mode: 0.2634

         *************************************************************
         *                          FORWARD IRC                      *
         *************************************************************

Iteration    E(Eh)      dE(kcal/mol)  max(|G|)   RMS(G) 
Convergence thresholds                0.002000  0.000500            
    0     -1104.435513   -1.106586    0.009558  0.002543
    1     -1104.438322   -2.868750    0.012962  0.002972
    2     -1104.442023   -5.191581    0.015089  0.003388
    3     -1104.446094   -7.745712    0.016054  0.003545
    4     -1104.450238   -10.346469    0.015913  0.003507
    5     -1104.454287   -12.887052    0.015212  0.003376
    6     -1104.458124   -15.294668    0.014191  0.003189
    7     -1104.461716   -17.548786    0.013080  0.002985
    8     -1104.465043   -19.636562    0.011940  0.002775
    9     -1104.468082   -21.543800    0.010871  0.002589
   10     -1104.470803   -23.251287    0.009805  0.002458
   11     -1104.473093   -24.687850    0.008891  0.002659
   12     -1104.473731   -25.088141    0.008617  0.002288
   13     -1104.474745   -25.724716    0.008154  0.001891
   14     -1104.475805   -26.389631    0.007649  0.001774
   15     -1104.476784   -27.003873    0.007138  0.001637
   16     -1104.477695   -27.575518    0.006639  0.001521
   17     -1104.478525   -28.096583    0.006137  0.001379
   18     -1104.479294   -28.579461    0.005635  0.001268
   19     -1104.479980   -29.009728    0.005136  0.001169
   20     -1104.480587   -29.390384    0.004653  0.001091
   21     -1104.481099   -29.711555    0.004185  0.001220
   22     -1104.481196   -29.772915    0.004111  0.000969
   23     -1104.481434   -29.921998    0.003887  0.000841
   24     -1104.481673   -30.072103    0.003645  0.000786
   25     -1104.481899   -30.213560    0.003406  0.000740
   26     -1104.482108   -30.345137    0.003174  0.000694
   27     -1104.482304   -30.468182    0.002948  0.000658
   28     -1104.482486   -30.581948    0.002735  0.000650
   29     -1104.482646   -30.682399    0.002540  0.000661
   30     -1104.482784   -30.769127    0.002519  0.000787
   31     -1104.482822   -30.793100    0.002339  0.000603
   32     -1104.482894   -30.838221    0.002257  0.000527
   33     -1104.482971   -30.886697    0.002171  0.000510
   34     -1104.483046   -30.933937    0.002087  0.000497
   35     -1104.483120   -30.980326    0.002008  0.000483
   36     -1104.483193   -31.025628    0.001931  0.000470

                      ***********************HURRAY********************
                      ***            THE IRC HAS CONVERGED          ***
                      *************************************************


         *************************************************************
         *                          BACKWARD IRC                     *
         *************************************************************

Iteration    E(Eh)      dE(kcal/mol)  max(|G|)   RMS(G) 
Convergence thresholds                0.002000  0.000500            
    0     -1104.435783   -1.275493    0.012395  0.003028
    1     -1104.439634   -3.692435    0.016167  0.003967
    2     -1104.444369   -6.663695    0.017691  0.004144
    3     -1104.448830   -9.462610    0.013629  0.003562
    4     -1104.452300   -11.640215    0.008684  0.002672
    5     -1104.454621   -13.096972    0.006306  0.001830
    6     -1104.455325   -13.538677    0.006020  0.001992
    7     -1104.455502   -13.649399    0.005276  0.001443
    8     -1104.455845   -13.864675    0.005025  0.001182
    9     -1104.456178   -14.073635    0.004693  0.001068
   10     -1104.456468   -14.255841    0.004419  0.000948
   11     -1104.456735   -14.423020    0.004070  0.000870
   12     -1104.456976   -14.574341    0.003878  0.000798
   13     -1104.457200   -14.714988    0.003553  0.000740
   14     -1104.457411   -14.847571    0.003473  0.000700
   15     -1104.457610   -14.972407    0.003162  0.000668
   16     -1104.457800   -15.091395    0.003209  0.000650
   17     -1104.457978   -15.203508    0.002829  0.000660
   18     -1104.458142   -15.306174    0.003137  0.000680
   19     -1104.458289   -15.398401    0.002510  0.000790
   20     -1104.458332   -15.425535    0.002716  0.000632
   21     -1104.458411   -15.474837    0.002791  0.000570
   22     -1104.458494   -15.527176    0.002693  0.000561
   23     -1104.458577   -15.579050    0.002689  0.000553
   24     -1104.458659   -15.630289    0.002614  0.000547
   25     -1104.458739   -15.680902    0.002631  0.000541
   26     -1104.458819   -15.730904    0.002553  0.000534
   27     -1104.458898   -15.780436    0.002587  0.000530
   28     -1104.458976   -15.829239    0.002510  0.000523
   29     -1104.459053   -15.877723    0.002499  0.000518
   30     -1104.459129   -15.925626    0.002449  0.000513
   31     -1104.459205   -15.973091    0.002450  0.000507
   32     -1104.459280   -16.020078    0.002391  0.000503
   33     -1104.459354   -16.066604    0.002401  0.000498
   34     -1104.459427   -16.112683    0.002344  0.000493
   35     -1104.459500   -16.158367    0.002355  0.000489
   36     -1104.459572   -16.203600    0.002298  0.000484
   37     -1104.459644   -16.248461    0.002307  0.000480
   38     -1104.459714   -16.292911    0.002252  0.000476
   39     -1104.459785   -16.336996    0.002262  0.000472
   40     -1104.459854   -16.380692    0.002207  0.000468
   41     -1104.459923   -16.424032    0.002215  0.000464
   42     -1104.459992   -16.467018    0.002159  0.000461
   43     -1104.460060   -16.509614    0.002168  0.000457
   44     -1104.460127   -16.551930    0.002115  0.000454
   45     -1104.460194   -16.593801    0.002122  0.000449
   46     -1104.460260   -16.635453    0.002088  0.000447
   47     -1104.460326   -16.676673    0.002088  0.000443
   48     -1104.460391   -16.717607    0.002045  0.000440
   49     -1104.460456   -16.758153    0.002040  0.000436
   50     -1104.460520   -16.798453    0.002014  0.000433
   51     -1104.460584   -16.838395    0.002002  0.000429
   52     -1104.460647   -16.878042    0.001970  0.000426

                      ***********************HURRAY********************
                      ***            THE IRC HAS CONVERGED          ***
                      *************************************************


---------------------------------------------------------------
                       IRC PATH SUMMARY              
---------------------------------------------------------------
All gradients are in Eh/Bohr.

Step        E(Eh)      dE(kcal/mol)  max(|G|)   RMS(G) 
   1     -1104.460647   -16.878042    0.001970  0.000426
   2     -1104.460584   -16.838395    0.002002  0.000429
   3     -1104.460520   -16.798453    0.002014  0.000433
   4     -1104.460456   -16.758153    0.002040  0.000436
   5     -1104.460391   -16.717607    0.002045  0.000440
   6     -1104.460326   -16.676673    0.002088  0.000443
   7     -1104.460260   -16.635453    0.002088  0.000447
   8     -1104.460194   -16.593801    0.002122  0.000449
   9     -1104.460127   -16.551930    0.002115  0.000454
  10     -1104.460060   -16.509614    0.002168  0.000457
  11     -1104.459992   -16.467018    0.002159  0.000461
  12     -1104.459923   -16.424032    0.002215  0.000464
  13     -1104.459854   -16.380692    0.002207  0.000468
  14     -1104.459785   -16.336996    0.002262  0.000472
  15     -1104.459714   -16.292911    0.002252  0.000476
  16     -1104.459644   -16.248461    0.002307  0.000480
  17     -1104.459572   -16.203600    0.002298  0.000484
  18     -1104.459500   -16.158367    0.002355  0.000489
  19     -1104.459427   -16.112683    0.002344  0.000493
  20     -1104.459354   -16.066604    0.002401  0.000498
  21     -1104.459280   -16.020078    0.002391  0.000503
  22     -1104.459205   -15.973091    0.002450  0.000507
  23     -1104.459129   -15.925626    0.002449  0.000513
  24     -1104.459053   -15.877723    0.002499  0.000518
  25     -1104.458976   -15.829239    0.002510  0.000523
  26     -1104.458898   -15.780436    0.002587  0.000530
  27     -1104.458819   -15.730904    0.002553  0.000534
  28     -1104.458739   -15.680902    0.002631  0.000541
  29     -1104.458659   -15.630289    0.002614  0.000547
  30     -1104.458577   -15.579050    0.002689  0.000553
  31     -1104.458494   -15.527176    0.002693  0.000561
  32     -1104.458411   -15.474837    0.002791  0.000570
  33     -1104.458332   -15.425535    0.002716  0.000632
  34     -1104.458289   -15.398401    0.002510  0.000790
  35     -1104.458142   -15.306174    0.003137  0.000680
  36     -1104.457978   -15.203508    0.002829  0.000660
  37     -1104.457800   -15.091395    0.003209  0.000650
  38     -1104.457610   -14.972407    0.003162  0.000668
  39     -1104.457411   -14.847571    0.003473  0.000700
  40     -1104.457200   -14.714988    0.003553  0.000740
  41     -1104.456976   -14.574341    0.003878  0.000798
  42     -1104.456735   -14.423020    0.004070  0.000870
  43     -1104.456468   -14.255841    0.004419  0.000948
  44     -1104.456178   -14.073635    0.004693  0.001068
  45     -1104.455845   -13.864675    0.005025  0.001182
  46     -1104.455502   -13.649399    0.005276  0.001443
  47     -1104.455325   -13.538677    0.006020  0.001992
  48     -1104.454621   -13.096972    0.006306  0.001830
  49     -1104.452300   -11.640215    0.008684  0.002672
  50     -1104.448830   -9.462610    0.013629  0.003562
  51     -1104.444369   -6.663695    0.017691  0.004144
  52     -1104.439634   -3.692435    0.016167  0.003967
  53     -1104.435783   -1.275493    0.012395  0.003028
  54     -1104.433750    0.000000    0.000035  0.000015 <= TS
  55     -1104.435513   -1.106586    0.009558  0.002543
  56     -1104.438322   -2.868750    0.012962  0.002972
  57     -1104.442023   -5.191581    0.015089  0.003388
  58     -1104.446094   -7.745712    0.016054  0.003545
  59     -1104.450238   -10.346469    0.015913  0.003507
  60     -1104.454287   -12.887052    0.015212  0.003376
  61     -1104.458124   -15.294668    0.014191  0.003189
  62     -1104.461716   -17.548786    0.013080  0.002985
  63     -1104.465043   -19.636562    0.011940  0.002775
  64     -1104.468082   -21.543800    0.010871  0.002589
  65     -1104.470803   -23.251287    0.009805  0.002458
  66     -1104.473093   -24.687850    0.008891  0.002659
  67     -1104.473731   -25.088141    0.008617  0.002288
  68     -1104.474745   -25.724716    0.008154  0.001891
  69     -1104.475805   -26.389631    0.007649  0.001774
  70     -1104.476784   -27.003873    0.007138  0.001637
  71     -1104.477695   -27.575518    0.006639  0.001521
  72     -1104.478525   -28.096583    0.006137  0.001379
  73     -1104.479294   -28.579461    0.005635  0.001268
  74     -1104.479980   -29.009728    0.005136  0.001169
  75     -1104.480587   -29.390384    0.004653  0.001091
  76     -1104.481099   -29.711555    0.004185  0.001220
  77     -1104.481196   -29.772915    0.004111  0.000969
  78     -1104.481434   -29.921998    0.003887  0.000841
  79     -1104.481673   -30.072103    0.003645  0.000786
  80     -1104.481899   -30.213560    0.003406  0.000740
  81     -1104.482108   -30.345137    0.003174  0.000694
  82     -1104.482304   -30.468182    0.002948  0.000658
  83     -1104.482486   -30.581948    0.002735  0.000650
  84     -1104.482646   -30.682399    0.002540  0.000661
  85     -1104.482784   -30.769127    0.002519  0.000787
  86     -1104.482822   -30.793100    0.002339  0.000603
  87     -1104.482894   -30.838221    0.002257  0.000527
  88     -1104.482971   -30.886697    0.002171  0.000510
  89     -1104.483046   -30.933937    0.002087  0.000497
  90     -1104.483120   -30.980326    0.002008  0.000483
  91     -1104.483193   -31.025628    0.001931  0.000470

Timings for individual modules:

Sum of individual times         ...     5780.874 sec (=  96.348 min)
GTO integral calculation        ...      222.980 sec (=   3.716 min)   3.9 %
SCF iterations                  ...     4884.502 sec (=  81.408 min)  84.5 %
SCF Gradient evaluation         ...      673.391 sec (=  11.223 min)  11.6 %
================================================================================

----- Orbital basis set information -----
Your calculation utilizes the basis: def2-SVP
   F. Weigend and R. Ahlrichs, Phys. Chem. Chem. Phys. 7, 3297 (2005).

                             ****ORCA TERMINATED NORMALLY****
TOTAL RUN TIME: 0 days 1 hours 51 minutes 49 seconds 677 msec
