
                                 *****************
                                 * O   R   C   A *
                                 *****************

                                            #,                                       
                                            ###                                      
                                            ####                                     
                                            #####                                    
                                            ######                                   
                                           ########,                                 
                                     ,,################,,,,,                         
                               ,,#################################,,                 
                          ,,##########################################,,             
                       ,#########################################, ''#####,          
                    ,#############################################,,   '####,        
                  ,##################################################,,,,####,       
                ,###########''''           ''''###############################       
              ,#####''   ,,,,##########,,,,          '''####'''          '####       
            ,##' ,,,,###########################,,,                        '##       
           ' ,,###''''                  '''############,,,                           
         ,,##''                                '''############,,,,        ,,,,,,###''
      ,#''                                            '''#######################'''  
     '                                                          ''''####''''         
             ,#######,   #######,   ,#######,      ##                                
            ,#'     '#,  ##    ##  ,#'     '#,    #''#        ######   ,####,        
            ##       ##  ##   ,#'  ##            #'  '#       #        #'  '#        
            ##       ##  #######   ##           ,######,      #####,   #    #        
            '#,     ,#'  ##    ##  '#,     ,#' ,#      #,         ##   #,  ,#        
             '#######'   ##     ##  '#######'  #'      '#     #####' # '####'        



                  #######################################################
                  #                        -***-                        #
                  #          Department of theory and spectroscopy      #
                  #    Directorship and core code : Frank Neese         #
                  #        Max Planck Institute fuer Kohlenforschung    #
                  #                Kaiser Wilhelm Platz 1               #
                  #                 D-45470 Muelheim/Ruhr               #
                  #                      Germany                        #
                  #                                                     #
                  #                  All rights reserved                #
                  #                        -***-                        #
                  #######################################################


                         Program Version 5.0.4 -  RELEASE  -


 With contributions from (in alphabetic order):
   Daniel Aravena         : Magnetic Suceptibility
   Michael Atanasov       : Ab Initio Ligand Field Theory (pilot matlab implementation)
   Alexander A. Auer      : GIAO ZORA, VPT2 properties, NMR spectrum
   Ute Becker             : Parallelization
   Giovanni Bistoni       : ED, misc. LED, open-shell LED, HFLD
   Martin Brehm           : Molecular dynamics
   Dmytro Bykov           : SCF Hessian
   Vijay G. Chilkuri      : MRCI spin determinant printing, contributions to CSF-ICE
   Dipayan Datta          : RHF DLPNO-CCSD density
   Achintya Kumar Dutta   : EOM-CC, STEOM-CC
   Dmitry Ganyushin       : Spin-Orbit,Spin-Spin,Magnetic field MRCI
   Miquel Garcia          : C-PCM and meta-GGA Hessian, CC/C-PCM, Gaussian charge scheme
   Yang Guo               : DLPNO-NEVPT2, F12-NEVPT2, CIM, IAO-localization
   Andreas Hansen         : Spin unrestricted coupled pair/coupled cluster methods
   Benjamin Helmich-Paris : MC-RPA, TRAH-SCF, COSX integrals
   Lee Huntington         : MR-EOM, pCC
   Robert Izsak           : Overlap fitted RIJCOSX, COSX-SCS-MP3, EOM
   Marcus Kettner         : VPT2
   Christian Kollmar      : KDIIS, OOCD, Brueckner-CCSD(T), CCSD density, CASPT2, CASPT2-K
   Simone Kossmann        : Meta GGA functionals, TD-DFT gradient, OOMP2, MP2 Hessian
   Martin Krupicka        : Initial AUTO-CI
   Lucas Lang             : DCDCAS
   Marvin Lechner         : AUTO-CI (C++ implementation), FIC-MRCC
   Dagmar Lenk            : GEPOL surface, SMD
   Dimitrios Liakos       : Extrapolation schemes; Compound Job, initial MDCI parallelization
   Dimitrios Manganas     : Further ROCIS development; embedding schemes
   Dimitrios Pantazis     : SARC Basis sets
   Anastasios Papadopoulos: AUTO-CI, single reference methods and gradients
   Taras Petrenko         : DFT Hessian,TD-DFT gradient, ASA, ECA, R-Raman, ABS, FL, XAS/XES, NRVS
   Peter Pinski           : DLPNO-MP2, DLPNO-MP2 Gradient
   Christoph Reimann      : Effective Core Potentials
   Marius Retegan         : Local ZFS, SOC
   Christoph Riplinger    : Optimizer, TS searches, QM/MM, DLPNO-CCSD(T), (RO)-DLPNO pert. Triples
   Tobias Risthaus        : Range-separated hybrids, TD-DFT gradient, RPA, STAB
   Michael Roemelt        : Original ROCIS implementation
   Masaaki Saitow         : Open-shell DLPNO-CCSD energy and density
   Barbara Sandhoefer     : DKH picture change effects
   Avijit Sen             : IP-ROCIS
   Kantharuban Sivalingam : CASSCF convergence, NEVPT2, FIC-MRCI
   Bernardo de Souza      : ESD, SOC TD-DFT
   Georgi Stoychev        : AutoAux, RI-MP2 NMR, DLPNO-MP2 response
   Willem Van den Heuvel  : Paramagnetic NMR
   Boris Wezisla          : Elementary symmetry handling
   Frank Wennmohs         : Technical directorship


 We gratefully acknowledge several colleagues who have allowed us to
 interface, adapt or use parts of their codes:
   Stefan Grimme, W. Hujo, H. Kruse, P. Pracht,  : VdW corrections, initial TS optimization,
                  C. Bannwarth, S. Ehlert          DFT functionals, gCP, sTDA/sTD-DF
   Ed Valeev, F. Pavosevic, A. Kumar             : LibInt (2-el integral package), F12 methods
   Garnet Chan, S. Sharma, J. Yang, R. Olivares  : DMRG
   Ulf Ekstrom                                   : XCFun DFT Library
   Mihaly Kallay                                 : mrcc  (arbitrary order and MRCC methods)
   Jiri Pittner, Ondrej Demel                    : Mk-CCSD
   Frank Weinhold                                : gennbo (NPA and NBO analysis)
   Christopher J. Cramer and Donald G. Truhlar   : smd solvation model
   Lars Goerigk                                  : TD-DFT with DH, B97 family of functionals
   V. Asgeirsson, H. Jonsson                     : NEB implementation
   FAccTs GmbH                                   : IRC, NEB, NEB-TS, DLPNO-Multilevel, CI-OPT
                                                   MM, QMMM, 2- and 3-layer-ONIOM, Crystal-QMMM,
                                                   LR-CPCM, SF, NACMEs, symmetry and pop. for TD-DFT,
                                                   nearIR, NL-DFT gradient (VV10), updates on ESD,
                                                   ML-optimized integration grids
   S Lehtola, MJT Oliveira, MAL Marques          : LibXC Library
   Liviu Ungur et al                             : ANISO software


 Your calculation uses the libint2 library for the computation of 2-el integrals
 For citations please refer to: http://libint.valeyev.net

 Your ORCA version has been built with support for libXC version: 5.1.0
 For citations please refer to: https://tddft.org/programs/libxc/

 This ORCA versions uses:
   CBLAS   interface :  Fast vector & matrix operations
   LAPACKE interface :  Fast linear algebra routines
   SCALAPACK package :  Parallel linear algebra routines
   Shared memory     :  Shared parallel matrices
   BLAS/LAPACK       :  OpenBLAS 0.3.15  USE64BITINT DYNAMIC_ARCH NO_AFFINITY SkylakeX SINGLE_THREADED
        Core in use  :  SkylakeX
   Copyright (c) 2011-2014, The OpenBLAS Project




***************************************
The coordinates will be read from file: IEIP_ts_guess.xyz
***************************************




################################################################################


                                COMPOUND JOB MainJOB 
Basename: reaction-1-ieip_optts_Compound_0

################################################################################

================================================================================
                                       INPUT FILE
================================================================================
NAME = reaction-1-ieip_optts_Compound_0.inp
|  1> %pal nprocs 8 end 
|  2>   
|  3>  *xyzfile 0 1 IEIP_ts_guess.xyz 
|  4>   
|  5> 
|  6>                          ****END OF INPUT****
================================================================================


***************************************
The coordinates will be read from file: IEIP_ts_guess.xyz
***************************************


================================================================================

cite the ECPs for Pd [Def2-ECP] as follows:
Ce-Yb(ecp-28): M. Dolg, H. Stoll, H.Preuss, J. Chem. Phys., 1989, 90, 1730-1734.
Y-Cd(ecp-28), Hf-Hg(ecp-46): D. Andrae,U. Haeussermann, M. Dolg, H. Stoll, H. Preuss, Theor. Chim. Acta, 1990, 77, 123-141.
In-Sb(ecp-28), Tl-Bi(ecp-46): B. Metz, H. Stoll, M. Dolg, J. Chem. Phys., 2000, 113, 2563-2569.
Te-Xe(ecp-28), Po-Rn(ecp-46): K. A. Peterson, D. Figgen, E. Goll, H. Stoll, M. Dolg, J. Chem. Phys., 2003, 119, 11113-11123.
Rb(ecp-28), Cs(ecp-46): T. Leininger, A. Nicklass, W. Kuechle, H. Stoll, M. Dolg, A. Bergner, Chem. Phys. Lett., 1996, 255, 274-280.
Sr(ecp-28), Ba(ecp-46): M. Kaupp, P. V. Schleyer, H. Stoll and H. Preuss, J. Chem. Phys., 1991, 94, 1360-1366.
La(ecp-46): M. Dolg, H. Stoll, A. Savin, H. Preuss, Theor. Chim. Acta, 1989, 75, 173-194.
Lu(ecp-28): X. Cao, M. Dolg, J. Chem. Phys., 2001, 115, 7348-7355.

ECP parameters for Pd [Def2-ECP] have been obtained from:
TURBOMOLE (7.0.2)

----- Orbital basis set information -----
Your calculation utilizes the basis: def2-SVP
   F. Weigend and R. Ahlrichs, Phys. Chem. Chem. Phys. 7, 3297 (2005).



################################################################################


                                COMPOUND JOB  1 
Basename: reaction-1-ieip_optts_Compound_1
NOTE: please remember that MaxCore and PAL settings will be ignored.

################################################################################

================================================================================
                                       INPUT FILE
================================================================================
NAME = reaction-1-ieip_optts_Compound_1.inp
|  1>   
|  2>    
|  3>   ! PBEh-3c OptTS Freq pal8 
|  4>    
|  5>   %geom 
|  6>    calc_hess true 
|  7>    recalc_hess 20 
|  8>    maxiter 600 
|  9>   end  
| 10>    
| 11> 
| 12>                          ****END OF INPUT****
================================================================================
Your calculation utilizes the geometrical counterpoise correction gCP
Please cite in your paper:
H.Kruse, S. Grimme J.Chem.Phys., 136, (2012), 154101 
   

Your calculation utilizes the atom-pairwise dispersion correction
with the Becke-Johnson damping scheme (D3BJ)
Cite in your paper:
S.Grimme, S.Ehrlich, L.Goerigk, J Comput Chem, (2011), 32, 1456–1465 
S.Grimme, J.Antony, S.Ehrlich and H.Krieg, J.Chem.Phys., 132, (2010), 154104 
   

Your calculation employs the composite approach PBEh-3c.
Please cite in your paper:
S. Grimme, J. G. Brandenburg, C. Bannwarth, A. Hansen J.Chem.Phys., 143, (2015), 054107 
   

================================================================================

cite the ECPs for Pd [Def2-ECP] as follows:
Ce-Yb(ecp-28): M. Dolg, H. Stoll, H.Preuss, J. Chem. Phys., 1989, 90, 1730-1734.
Y-Cd(ecp-28), Hf-Hg(ecp-46): D. Andrae,U. Haeussermann, M. Dolg, H. Stoll, H. Preuss, Theor. Chim. Acta, 1990, 77, 123-141.
In-Sb(ecp-28), Tl-Bi(ecp-46): B. Metz, H. Stoll, M. Dolg, J. Chem. Phys., 2000, 113, 2563-2569.
Te-Xe(ecp-28), Po-Rn(ecp-46): K. A. Peterson, D. Figgen, E. Goll, H. Stoll, M. Dolg, J. Chem. Phys., 2003, 119, 11113-11123.
Rb(ecp-28), Cs(ecp-46): T. Leininger, A. Nicklass, W. Kuechle, H. Stoll, M. Dolg, A. Bergner, Chem. Phys. Lett., 1996, 255, 274-280.
Sr(ecp-28), Ba(ecp-46): M. Kaupp, P. V. Schleyer, H. Stoll and H. Preuss, J. Chem. Phys., 1991, 94, 1360-1366.
La(ecp-46): M. Dolg, H. Stoll, A. Savin, H. Preuss, Theor. Chim. Acta, 1989, 75, 173-194.
Lu(ecp-28): X. Cao, M. Dolg, J. Chem. Phys., 2001, 115, 7348-7355.

ECP parameters for Pd [Def2-ECP] have been obtained from:
TURBOMOLE (7.0.2)

----- Orbital basis set information -----
Your calculation utilizes the basis: def2-mSVP

----- AuxJ basis set information -----
Your calculation utilizes the auxiliary basis: def2/J
   F. Weigend, Phys. Chem. Chem. Phys. 8, 1057 (2006).

================================================================================
                                        WARNINGS
                       Please study these warnings very carefully!
================================================================================


WARNING: Geometry Optimization
  ===> : Switching off AutoStart
         For restart on a previous wavefunction, please use MOREAD

INFO   : the flag for use of the SHARK integral package has been found!


                       *****************************
                       * Geometry Optimization Run *
                       *****************************

Geometry optimization settings:
Update method            Update   .... Bofill
Choice of coordinates    CoordSys .... Z-matrix Internals
Initial Hessian          InHess   .... Almoef's Model

Convergence Tolerances:
Energy Change            TolE     ....  5.0000e-06 Eh
Max. Gradient            TolMAXG  ....  3.0000e-04 Eh/bohr
RMS Gradient             TolRMSG  ....  1.0000e-04 Eh/bohr
Max. Displacement        TolMAXD  ....  4.0000e-03 bohr
RMS Displacement         TolRMSD  ....  2.0000e-03 bohr
Strict Convergence                ....  False
------------------------------------------------------------------------------
                        ORCA OPTIMIZATION COORDINATE SETUP
------------------------------------------------------------------------------

The optimization will be done in new redundant internal coordinates
Making redundant internal coordinates   ...  (new redundants) done
Following TS mode number                ...     0
Evaluating the initial hessian          ...  (Is done on the fly) done
Evaluating the coordinates              ...  done
Calculating the B-matrix                .... done
Calculating the G-matrix                .... done
Diagonalizing the G-matrix              .... done
Small eigenvalue found = 9.121e-03
Small eigenvalue found = 2.583e-02
The first mode is                       ....  178
The number of degrees of freedom        ....  108

    -----------------------------------------------------------------
                    Redundant Internal Coordinates


    -----------------------------------------------------------------
         Definition                    Initial Value    d2E/dq (diagonal element)
    -----------------------------------------------------------------
      1. B(O   1,Pd  0)                  2.0245         0.000000   
      2. B(C   2,O   1)                  1.2580         0.000000   
      3. B(C   2,Pd  0)                  2.7295         0.000000   
      4. B(O   3,C   2)                  1.2664         0.000000   
      5. B(C   4,C   2)                  1.5195         0.000000   
      6. B(H   5,C   4)                  1.0864         0.000000   
      7. B(H   6,C   4)                  1.0944         0.000000   
      8. B(H   7,C   4)                  1.0909         0.000000   
      9. B(N   8,Pd  0)                  2.1069         0.000000   
     10. B(C   9,N   8)                  1.4733         0.000000   
     11. B(H  10,C   9)                  1.0835         0.000000   
     12. B(H  11,C   9)                  1.0951         0.000000   
     13. B(H  12,C   9)                  1.0881         0.000000   
     14. B(C  13,N   8)                  1.4753         0.000000   
     15. B(H  14,C  13)                  1.0892         0.000000   
     16. B(H  15,C  13)                  1.0962         0.000000   
     17. B(H  16,C  13)                  1.0870         0.000000   
     18. B(C  17,Pd  0)                  2.7050         0.000000   
     19. B(C  18,C  17)                  1.3925         0.000000   
     20. B(C  19,C  18)                  1.3831         0.000000   
     21. B(C  20,C  19)                  1.3844         0.000000   
     22. B(C  21,C  20)                  1.3925         0.000000   
     23. B(C  22,C  21)                  1.4034         0.000000   
     24. B(C  22,C  17)                  1.4205         0.000000   
     25. B(C  22,Pd  0)                  2.2330         0.000000   
     26. B(H  23,C  20)                  1.0820         0.000000   
     27. B(H  24,C  21)                  1.0816         0.000000   
     28. B(H  25,C  18)                  1.0860         0.000000   
     29. B(H  26,C  19)                  1.0841         0.000000   
     30. B(H  27,Pd  0)                  2.1540         0.000000   
     31. B(C  28,N   8)                  1.4855         0.000000   
     32. B(C  28,C  17)                  1.4904         0.000000   
     33. B(H  29,C  28)                  1.0941         0.000000   
     34. B(H  30,C  28)                  1.0915         0.000000   
     35. B(O  31,Pd  0)                  1.9902         0.000000   
     36. B(C  32,O  31)                  1.2852         0.000000   
     37. B(O  33,C  32)                  1.2187         0.000000   
     38. B(C  34,C  32)                  1.5215         0.000000   
     39. B(H  35,C  34)                  1.0905         0.000000   
     40. B(H  36,C  34)                  1.0869         0.000000   
     41. B(H  37,C  34)                  1.0900         0.000000   
     42. A(O   1,Pd  0,C  22)           92.8297         0.000000   
     43. A(C  22,Pd  0,O  31)          163.1107         0.000000   
     44. A(N   8,Pd  0,H  27)          100.3580         0.000000   
     45. A(C  17,Pd  0,C  22)           31.6345         0.000000   
     46. A(C  17,Pd  0,O  31)          145.9047         0.000000   
     47. A(C   2,Pd  0,H  27)           51.2386         0.000000   
     48. A(C   2,Pd  0,C  17)          115.5282         0.000000   
     49. A(C  22,Pd  0,H  27)           40.2700         0.000000   
     50. A(H  27,Pd  0,O  31)          144.7307         0.000000   
     51. A(C   2,Pd  0,N   8)          142.7506         0.000000   
     52. A(O   1,Pd  0,N   8)          168.2283         0.000000   
     53. A(O   1,Pd  0,C  17)          121.4651         0.000000   
     54. A(C   2,Pd  0,C  22)           83.8946         0.000000   
     55. A(C  17,Pd  0,H  27)           68.6868         0.000000   
     56. A(C   2,Pd  0,O  31)           94.4947         0.000000   
     57. A(N   8,Pd  0,O  31)          105.5792         0.000000   
     58. A(N   8,Pd  0,C  17)           60.0540         0.000000   
     59. A(O   1,Pd  0,H  27)           71.1650         0.000000   
     60. A(O   1,Pd  0,O  31)           79.2521         0.000000   
     61. A(N   8,Pd  0,C  22)           85.1229         0.000000   
     62. A(O   1,Pd  0,C   2)           25.6065         0.000000   
     63. A(Pd  0,O   1,C   2)          110.3256         0.000000   
     64. A(O   3,C   2,C   4)          122.6756         0.000000   
     65. A(Pd  0,C   2,C   4)          149.5108         0.000000   
     66. A(Pd  0,C   2,O   1)           44.0678         0.000000   
     67. A(O   1,C   2,C   4)          114.8812         0.000000   
     68. A(O   1,C   2,O   3)          122.4253         0.000000   
     69. A(Pd  0,C   2,O   3)           81.8266         0.000000   
     70. A(H   6,C   4,H   7)          105.4044         0.000000   
     71. A(C   2,C   4,H   5)          114.2784         0.000000   
     72. A(H   5,C   4,H   7)          109.3635         0.000000   
     73. A(C   2,C   4,H   7)          109.9330         0.000000   
     74. A(H   5,C   4,H   6)          107.9700         0.000000   
     75. A(C   2,C   4,H   6)          109.4985         0.000000   
     76. A(C   9,N   8,C  28)          108.2679         0.000000   
     77. A(C   9,N   8,C  13)          108.8122         0.000000   
     78. A(Pd  0,N   8,C  13)          106.9890         0.000000   
     79. A(Pd  0,N   8,C   9)          116.8700         0.000000   
     80. A(C  13,N   8,C  28)          109.4837         0.000000   
     81. A(Pd  0,N   8,C  28)          106.2519         0.000000   
     82. A(H  11,C   9,H  12)          109.1174         0.000000   
     83. A(N   8,C   9,H  12)          109.4836         0.000000   
     84. A(H  10,C   9,H  12)          108.3343         0.000000   
     85. A(H  10,C   9,H  11)          110.7475         0.000000   
     86. A(N   8,C   9,H  11)          109.2892         0.000000   
     87. A(N   8,C   9,H  10)          109.8462         0.000000   
     88. A(H  15,C  13,H  16)          108.6570         0.000000   
     89. A(H  14,C  13,H  16)          109.3278         0.000000   
     90. A(N   8,C  13,H  16)          110.1291         0.000000   
     91. A(H  14,C  13,H  15)          108.0670         0.000000   
     92. A(N   8,C  13,H  15)          109.9424         0.000000   
     93. A(N   8,C  13,H  14)          110.6656         0.000000   
     94. A(C  18,C  17,C  22)          122.1000         0.000000   
     95. A(Pd  0,C  17,C  22)           55.5407         0.000000   
     96. A(Pd  0,C  17,C  18)          136.2967         0.000000   
     97. A(C  22,C  17,C  28)          120.7148         0.000000   
     98. A(C  18,C  17,C  28)          117.1849         0.000000   
     99. A(Pd  0,C  17,C  28)           81.8694         0.000000   
    100. A(C  19,C  18,H  25)          119.6309         0.000000   
    101. A(C  17,C  18,H  25)          119.7480         0.000000   
    102. A(C  17,C  18,C  19)          120.6141         0.000000   
    103. A(C  20,C  19,H  26)          121.2022         0.000000   
    104. A(C  18,C  19,H  26)          120.3457         0.000000   
    105. A(C  18,C  19,C  20)          118.4520         0.000000   
    106. A(C  21,C  20,H  23)          120.2022         0.000000   
    107. A(C  19,C  20,H  23)          119.4202         0.000000   
    108. A(C  19,C  20,C  21)          120.3228         0.000000   
    109. A(C  22,C  21,H  24)          119.4359         0.000000   
    110. A(C  20,C  21,H  24)          117.5698         0.000000   
    111. A(C  20,C  21,C  22)          122.9642         0.000000   
    112. A(C  17,C  22,C  21)          114.3983         0.000000   
    113. A(Pd  0,C  22,C  21)          131.0363         0.000000   
    114. A(Pd  0,C  22,C  17)           92.8248         0.000000   
    115. A(H  29,C  28,H  30)          105.9302         0.000000   
    116. A(C  17,C  28,H  30)          110.8119         0.000000   
    117. A(N   8,C  28,H  30)          108.9907         0.000000   
    118. A(C  17,C  28,H  29)          109.3366         0.000000   
    119. A(N   8,C  28,H  29)          109.8952         0.000000   
    120. A(N   8,C  28,C  17)          111.7120         0.000000   
    121. A(Pd  0,O  31,C  32)          139.1653         0.000000   
    122. A(O  33,C  32,C  34)          118.8985         0.000000   
    123. A(O  31,C  32,C  34)          113.3427         0.000000   
    124. A(O  31,C  32,O  33)          127.7554         0.000000   
    125. A(H  36,C  34,H  37)          109.2428         0.000000   
    126. A(H  35,C  34,H  37)          106.7175         0.000000   
    127. A(C  32,C  34,H  37)          108.1819         0.000000   
    128. A(H  35,C  34,H  36)          109.0816         0.000000   
    129. A(C  32,C  34,H  36)          113.7232         0.000000   
    130. A(C  32,C  34,H  35)          109.6559         0.000000   
    131. D(C   2,O   1,Pd  0,N   8)     10.0849         0.000000   
    132. D(C   2,O   1,Pd  0,C  22)    -69.5418         0.000000   
    133. D(C   2,O   1,Pd  0,O  31)    125.4947         0.000000   
    134. D(C   2,O   1,Pd  0,C  17)    -83.8090         0.000000   
    135. D(C   2,O   1,Pd  0,H  27)    -35.0311         0.000000   
    136. D(C   4,C   2,Pd  0,O  31)      2.4300         0.000000   
    137. D(O   3,C   2,Pd  0,N   8)     25.3755         0.000000   
    138. D(O   3,C   2,Pd  0,C  17)    -48.0137         0.000000   
    139. D(O   1,C   2,Pd  0,O  31)    -53.3555         0.000000   
    140. D(C   4,C   2,Pd  0,C  17)    165.7797         0.000000   
    141. D(C   4,C   2,Pd  0,O   1)     55.7855         0.000000   
    142. D(C   4,C   2,O   1,Pd  0)   -152.4517         0.000000   
    143. D(O   3,C   2,Pd  0,O  31)    148.6365         0.000000   
    144. D(O   3,C   2,Pd  0,C  22)    -48.2490         0.000000   
    145. D(O   1,C   2,Pd  0,N   8)   -176.6165         0.000000   
    146. D(O   3,C   2,Pd  0,O   1)   -158.0080         0.000000   
    147. D(O   1,C   2,Pd  0,H  27)    135.8346         0.000000   
    148. D(O   1,C   2,Pd  0,C  17)    109.9943         0.000000   
    149. D(O   3,C   2,O   1,Pd  0)     26.0489         0.000000   
    150. D(C   4,C   2,Pd  0,N   8)   -120.8310         0.000000   
    151. D(C   4,C   2,Pd  0,H  27)   -168.3799         0.000000   
    152. D(C   4,C   2,Pd  0,C  22)    165.5444         0.000000   
    153. D(O   3,C   2,Pd  0,H  27)    -22.1734         0.000000   
    154. D(O   1,C   2,Pd  0,C  22)    109.7590         0.000000   
    155. D(H   6,C   4,C   2,O   3)   -103.1434         0.000000   
    156. D(H   6,C   4,C   2,Pd  0)     36.0080         0.000000   
    157. D(H   7,C   4,C   2,Pd  0)    -79.3427         0.000000   
    158. D(H   5,C   4,C   2,O   1)   -163.3979         0.000000   
    159. D(H   6,C   4,C   2,O   1)     75.3530         0.000000   
    160. D(H   5,C   4,C   2,O   3)     18.1057         0.000000   
    161. D(H   5,C   4,C   2,Pd  0)    157.2571         0.000000   
    162. D(H   7,C   4,C   2,O   1)    -39.9977         0.000000   
    163. D(H   7,C   4,C   2,O   3)    141.5059         0.000000   
    164. D(C  28,N   8,Pd  0,H  27)    -55.7504         0.000000   
    165. D(C  28,N   8,Pd  0,C  22)    -18.3171         0.000000   
    166. D(C  28,N   8,Pd  0,C  17)      2.1284         0.000000   
    167. D(C  28,N   8,Pd  0,O  31)    148.3840         0.000000   
    168. D(C  28,N   8,Pd  0,O   1)    -98.7274         0.000000   
    169. D(C  13,N   8,Pd  0,O  31)    -94.7224         0.000000   
    170. D(C  13,N   8,Pd  0,H  27)     61.1432         0.000000   
    171. D(C   9,N   8,Pd  0,O  31)     27.4717         0.000000   
    172. D(C  13,N   8,Pd  0,O   1)     18.1662         0.000000   
    173. D(C  13,N   8,Pd  0,C   2)     25.3487         0.000000   
    174. D(C   9,N   8,Pd  0,H  27)   -176.6627         0.000000   
    175. D(C  13,N   8,Pd  0,C  17)    119.0220         0.000000   
    176. D(C  28,N   8,Pd  0,C   2)    -91.5449         0.000000   
    177. D(C  13,N   8,Pd  0,C  22)     98.5766         0.000000   
    178. D(C   9,N   8,Pd  0,C  22)   -139.2293         0.000000   
    179. D(C   9,N   8,Pd  0,C  17)   -118.7839         0.000000   
    180. D(C   9,N   8,Pd  0,C   2)    147.5428         0.000000   
    181. D(C   9,N   8,Pd  0,O   1)    140.3603         0.000000   
    182. D(H  12,C   9,N   8,C  28)    -63.5596         0.000000   
    183. D(H  11,C   9,N   8,C  28)     55.9048         0.000000   
    184. D(H  11,C   9,N   8,C  13)    -63.0104         0.000000   
    185. D(H  12,C   9,N   8,Pd  0)     56.2840         0.000000   
    186. D(H  11,C   9,N   8,Pd  0)    175.7484         0.000000   
    187. D(H  10,C   9,N   8,C  28)    177.5959         0.000000   
    188. D(H  10,C   9,N   8,C  13)     58.6807         0.000000   
    189. D(H  10,C   9,N   8,Pd  0)    -62.5605         0.000000   
    190. D(H  12,C   9,N   8,C  13)    177.5252         0.000000   
    191. D(H  14,C  13,N   8,C  28)     59.2105         0.000000   
    192. D(H  14,C  13,N   8,C   9)    177.3612         0.000000   
    193. D(H  14,C  13,N   8,Pd  0)    -55.5293         0.000000   
    194. D(H  16,C  13,N   8,C   9)    -61.6419         0.000000   
    195. D(H  15,C  13,N   8,C  28)    -60.0942         0.000000   
    196. D(H  16,C  13,N   8,Pd  0)     65.4677         0.000000   
    197. D(H  16,C  13,N   8,C  28)   -179.7925         0.000000   
    198. D(H  15,C  13,N   8,C   9)     58.0565         0.000000   
    199. D(H  15,C  13,N   8,Pd  0)   -174.8340         0.000000   
    200. D(C  28,C  17,Pd  0,O  31)    -74.7125         0.000000   
    201. D(C  28,C  17,Pd  0,H  27)    114.5258         0.000000   
    202. D(C  28,C  17,Pd  0,C  22)    136.3685         0.000000   
    203. D(C  28,C  17,Pd  0,N   8)     -2.0573         0.000000   
    204. D(C  28,C  17,Pd  0,C   2)    135.9224         0.000000   
    205. D(C  28,C  17,Pd  0,O   1)    164.3569         0.000000   
    206. D(C  22,C  17,Pd  0,O  31)    148.9190         0.000000   
    207. D(C  22,C  17,Pd  0,H  27)    -21.8427         0.000000   
    208. D(C  22,C  17,Pd  0,N   8)   -138.4258         0.000000   
    209. D(C  22,C  17,Pd  0,C   2)     -0.4461         0.000000   
    210. D(C  22,C  17,Pd  0,O   1)     27.9884         0.000000   
    211. D(C  18,C  17,Pd  0,O  31)     46.5169         0.000000   
    212. D(C  18,C  17,Pd  0,H  27)   -124.2447         0.000000   
    213. D(C  18,C  17,Pd  0,C  22)   -102.4021         0.000000   
    214. D(C  18,C  17,Pd  0,N   8)    119.1721         0.000000   
    215. D(C  18,C  17,Pd  0,C   2)   -102.8482         0.000000   
    216. D(C  18,C  17,Pd  0,O   1)    -74.4137         0.000000   
    217. D(H  25,C  18,C  17,C  28)      9.2273         0.000000   
    218. D(H  25,C  18,C  17,C  22)   -170.5861         0.000000   
    219. D(H  25,C  18,C  17,Pd  0)    -98.6675         0.000000   
    220. D(C  19,C  18,C  17,C  28)   -171.7355         0.000000   
    221. D(C  19,C  18,C  17,C  22)      8.4511         0.000000   
    222. D(C  19,C  18,C  17,Pd  0)     80.3697         0.000000   
    223. D(H  26,C  19,C  18,H  25)      0.4175         0.000000   
    224. D(H  26,C  19,C  18,C  17)   -178.6208         0.000000   
    225. D(C  20,C  19,C  18,H  25)   -179.4432         0.000000   
    226. D(C  20,C  19,C  18,C  17)      1.5185         0.000000   
    227. D(H  23,C  20,C  19,H  26)     -5.3921         0.000000   
    228. D(H  23,C  20,C  19,C  18)    174.4673         0.000000   
    229. D(C  21,C  20,C  19,H  26)    171.9210         0.000000   
    230. D(C  21,C  20,C  19,C  18)     -8.2196         0.000000   
    231. D(H  24,C  21,C  20,H  23)      0.6444         0.000000   
    232. D(H  24,C  21,C  20,C  19)   -176.6476         0.000000   
    233. D(C  22,C  21,C  20,H  23)   -177.3473         0.000000   
    234. D(C  22,C  21,C  20,C  19)      5.3607         0.000000   
    235. D(C  17,C  22,C  21,H  24)   -173.8788         0.000000   
    236. D(Pd  0,C  22,C  21,H  24)     68.3111         0.000000   
    237. D(Pd  0,C  22,C  21,C  20)   -113.7331         0.000000   
    238. D(C  21,C  22,C  17,C  28)    169.2999         0.000000   
    239. D(C  21,C  22,C  17,Pd  0)   -138.0884         0.000000   
    240. D(Pd  0,C  22,C  17,C  28)    -52.6118         0.000000   
    241. D(Pd  0,C  22,C  17,C  18)    127.1951         0.000000   
    242. D(C  21,C  22,Pd  0,O  31)     31.1940         0.000000   
    243. D(C  21,C  22,Pd  0,H  27)    -86.1816         0.000000   
    244. D(C  21,C  22,Pd  0,C  17)    126.2457         0.000000   
    245. D(C  21,C  22,Pd  0,N   8)    161.4916         0.000000   
    246. D(C  21,C  22,Pd  0,C   2)    -54.1592         0.000000   
    247. D(C  21,C  22,Pd  0,O   1)    -30.1276         0.000000   
    248. D(C  21,C  22,C  17,C  18)    -10.8932         0.000000   
    249. D(C  17,C  22,Pd  0,O  31)    -95.0517         0.000000   
    250. D(C  17,C  22,Pd  0,H  27)    147.5727         0.000000   
    251. D(C  17,C  22,Pd  0,N   8)     35.2459         0.000000   
    252. D(C  17,C  22,C  21,C  20)      4.0770         0.000000   
    253. D(C  17,C  22,Pd  0,C   2)    179.5952         0.000000   
    254. D(C  17,C  22,Pd  0,O   1)   -156.3733         0.000000   
    255. D(C  17,C  28,N   8,C  13)   -118.8165         0.000000   
    256. D(C  17,C  28,N   8,C   9)    122.6942         0.000000   
    257. D(C  17,C  28,N   8,Pd  0)     -3.6043         0.000000   
    258. D(H  30,C  28,C  17,C  22)    165.8971         0.000000   
    259. D(H  30,C  28,C  17,C  18)    -13.9190         0.000000   
    260. D(H  30,C  28,C  17,Pd  0)    124.4619         0.000000   
    261. D(H  29,C  28,C  17,C  18)    102.4763         0.000000   
    262. D(H  29,C  28,C  17,Pd  0)   -119.1428         0.000000   
    263. D(N   8,C  28,C  17,C  22)     44.1571         0.000000   
    264. D(N   8,C  28,C  17,C  18)   -135.6590         0.000000   
    265. D(N   8,C  28,C  17,Pd  0)      2.7219         0.000000   
    266. D(H  30,C  28,N   8,C  13)    118.3990         0.000000   
    267. D(H  30,C  28,N   8,C   9)     -0.0904         0.000000   
    268. D(H  29,C  28,C  17,C  22)    -77.7076         0.000000   
    269. D(H  30,C  28,N   8,Pd  0)   -126.3889         0.000000   
    270. D(H  29,C  28,N   8,C  13)      2.7259         0.000000   
    271. D(H  29,C  28,N   8,C   9)   -115.7634         0.000000   
    272. D(H  29,C  28,N   8,Pd  0)    117.9381         0.000000   
    273. D(C  32,O  31,Pd  0,H  27)   -119.9156         0.000000   
    274. D(C  32,O  31,Pd  0,C  22)    143.8472         0.000000   
    275. D(C  32,O  31,Pd  0,C  17)     75.0961         0.000000   
    276. D(C  32,O  31,Pd  0,N   8)     15.9318         0.000000   
    277. D(C  32,O  31,Pd  0,C   2)   -132.3708         0.000000   
    278. D(C  32,O  31,Pd  0,O   1)   -153.0393         0.000000   
    279. D(C  34,C  32,O  31,Pd  0)    174.5876         0.000000   
    280. D(O  33,C  32,O  31,Pd  0)     -4.7213         0.000000   
    281. D(H  37,C  34,C  32,O  33)     55.0270         0.000000   
    282. D(H  37,C  34,C  32,O  31)   -124.3489         0.000000   
    283. D(H  36,C  34,C  32,O  33)    176.5769         0.000000   
    284. D(H  36,C  34,C  32,O  31)     -2.7990         0.000000   
    285. D(H  35,C  34,C  32,O  33)    -61.0013         0.000000   
    286. D(H  35,C  34,C  32,O  31)    119.6228         0.000000   
    -----------------------------------------------------------------

Number of atoms                         .... 38
Number of degrees of freedom            .... 286

         *************************************************************
         *                GEOMETRY OPTIMIZATION CYCLE   1            *
         *************************************************************
---------------------------------
CARTESIAN COORDINATES (ANGSTROEM)
---------------------------------
  Pd     0.328020    0.148390   -0.128040
  O      1.745520    1.361950    0.657090
  C      1.324200    2.545910    0.714470
  O      0.091550    2.824860    0.794860
  C      2.403850    3.612830    0.643930
  H      2.081750    4.596750    0.973270
  H      2.762370    3.702190   -0.386250
  H      3.272020    3.302510    1.226990
  N     -1.350010   -0.744290   -1.037190
  C     -1.098240   -1.914870   -1.895740
  H     -0.478130   -1.627770   -2.736600
  H     -2.054200   -2.323120   -2.240240
  H     -0.570340   -2.676410   -1.325410
  C     -2.012230    0.301090   -1.840320
  H     -2.254790    1.164620   -1.222400
  H     -2.946010   -0.087540   -2.263010
  H     -1.364600    0.612750   -2.655780
  C     -1.639930   -0.899350    1.403730
  C     -1.743180   -1.906240    2.360100
  C     -1.357540   -1.677190    3.668460
  C     -0.897970   -0.416660    4.009550
  C     -0.667480    0.538400    3.022790
  C     -0.982200    0.330990    1.670980
  H     -0.677590   -0.193510    5.045110
  H     -0.256310    1.489460    3.332950
  H     -2.115240   -2.885460    2.073590
  H     -1.418850   -2.470820    4.404480
  H     -0.635590    1.668020    1.055920
  C     -2.248710   -1.162890    0.069100
  H     -3.202690   -0.632250   -0.005110
  H     -2.485260   -2.222080   -0.046910
  O      1.861050   -0.241750   -1.335770
  C      2.074160   -0.636630   -2.540090
  O      1.251230   -0.994770   -3.364620
  C      3.545080   -0.619180   -2.928890
  H      3.866380   -1.626970   -3.194060
  H      4.198240   -0.230950   -2.151690
  H      3.652520   -0.009590   -3.826070

----------------------------
CARTESIAN COORDINATES (A.U.)
----------------------------
  NO LB      ZA    FRAG     MASS         X           Y           Z
   0 Pd   18.0000*   0   106.400    0.619868    0.280416   -0.241961
   1 O     8.0000    0    15.999    3.298555    2.573713    1.241720
   2 C     6.0000    0    12.011    2.502375    4.811073    1.350153
   3 O     8.0000    0    15.999    0.173004    5.338212    1.502068
   4 C     6.0000    0    12.011    4.542618    6.827259    1.216851
   5 H     1.0000    0     1.008    3.933937    8.686599    1.839214
   6 H     1.0000    0     1.008    5.220123    6.996125   -0.729907
   7 H     1.0000    0     1.008    6.183222    6.240839    2.318675
   8 N     7.0000    0    14.007   -2.551149   -1.406504   -1.960005
   9 C     6.0000    0    12.011   -2.075373   -3.618580   -3.582429
  10 H     1.0000    0     1.008   -0.903535   -3.076040   -5.171425
  11 H     1.0000    0     1.008   -3.881875   -4.390061   -4.233440
  12 H     1.0000    0     1.008   -1.077786   -5.057682   -2.504662
  13 C     6.0000    0    12.011   -3.802564    0.568978   -3.477701
  14 H     1.0000    0     1.008   -4.260936    2.200813   -2.310001
  15 H     1.0000    0     1.008   -5.567152   -0.165427   -4.276469
  16 H     1.0000    0     1.008   -2.578720    1.157930   -5.018697
  17 C     6.0000    0    12.011   -3.099019   -1.699525    2.652665
  18 C     6.0000    0    12.011   -3.294133   -3.602272    4.459943
  19 C     6.0000    0    12.011   -2.565379   -3.169430    6.932385
  20 C     6.0000    0    12.011   -1.696917   -0.787373    7.576951
  21 C     6.0000    0    12.011   -1.261354    1.017429    5.712245
  22 C     6.0000    0    12.011   -1.856089    0.625480    3.157695
  23 H     1.0000    0     1.008   -1.280460   -0.365681    9.533876
  24 H     1.0000    0     1.008   -0.484356    2.814671    6.298363
  25 H     1.0000    0     1.008   -3.997224   -5.452729    3.918517
  26 H     1.0000    0     1.008   -2.681238   -4.669173    8.323261
  27 H     1.0000    0     1.008   -1.201091    3.152101    1.995400
  28 C     6.0000    0    12.011   -4.249446   -2.197544    0.130580
  29 H     1.0000    0     1.008   -6.052207   -1.194779   -0.009657
  30 H     1.0000    0     1.008   -4.696461   -4.199123   -0.088647
  31 O     8.0000    0    15.999    3.516875   -0.456841   -2.524239
  32 C     6.0000    0    12.011    3.919594   -1.203056   -4.800074
  33 O     8.0000    0    15.999    2.364482   -1.879843   -6.358210
  34 C     6.0000    0    12.011    6.699230   -1.170081   -5.534800
  35 H     1.0000    0     1.008    7.306399   -3.074528   -6.035899
  36 H     1.0000    0     1.008    7.933524   -0.436432   -4.066105
  37 H     1.0000    0     1.008    6.902262   -0.018122   -7.230224
* core charge reduced due to ECP

--------------------------------
INTERNAL COORDINATES (ANGSTROEM)
--------------------------------
 Pd     0   0   0     0.000000000000     0.00000000     0.00000000
 O      1   0   0     2.024466161856     0.00000000     0.00000000
 C      2   1   0     1.258000114626   110.32561668     0.00000000
 O      3   2   1     1.266373435089   122.42530397    26.04894525
 C      3   2   1     1.519519101723   114.88122122   207.54834467
 H      5   3   2     1.086421562746   114.27842315   196.60214417
 H      5   3   2     1.094437130401   109.49846966    75.35301243
 H      5   3   2     1.090860492868   109.93296314   320.00234087
 N      1   2   3     2.106944704020   168.22833085    10.08486160
 C      9   1   2     1.473347810872   116.87000293   140.36033410
 H     10   9   1     1.083516664247   109.84623040   297.43948985
 H     10   9   1     1.095083482708   109.28919971   175.74840140
 H     10   9   1     1.088070719439   109.48362415    56.28400234
 C      9   1   2     1.475253357800   106.98898492    18.16623291
 H     14   9   1     1.089194445864   110.66563106   304.47073305
 H     14   9   1     1.096195786071   109.94244698   185.16603547
 H     14   9   1     1.086982789238   110.12914255    65.46767131
 C      9   1   2     2.462963186164    72.10841258   259.14419484
 C     18   9   1     1.392527059522   137.29795942   242.81804468
 C     19  18   9     1.383108094727   120.61414137   152.99027037
 C     20  19  18     1.384370923524   118.45196932     1.51852142
 C     21  20  19     1.392465633795   120.32278469   351.78037535
 C     22  21  20     1.403373743021   122.96424358     5.36073858
 H     21  20  19     1.082010989085   119.42017631   174.46726678
 H     22  21  20     1.081561425949   117.56975752   183.35241500
 H     19  18   9     1.085996515694   119.74800961   333.95309889
 H     20  19  18     1.084127729283   120.34571209   181.37916447
 H      4   3   2     1.391101609804   109.72591021    10.97988005
 C      9   1   2     1.485518500087   106.25189784   261.27260100
 H     29   9   1     1.094149795092   109.89520552   117.93808438
 H     29   9   1     1.091465839456   108.99065270   233.61112984
 O      1   2   3     1.990226608555    79.25211297   125.49473376
 C     32   1   2     1.285197552480   139.16531713   206.96072624
 O     33  32   1     1.218740237048   127.75538081   355.27867448
 C     33  32   1     1.521537245321   113.34265987   174.58760342
 H     35  33  32     1.090499657497   109.65592698   119.62279773
 H     35  33  32     1.086913224917   113.72318014   357.20096916
 H     35  33  32     1.089988657785   108.18189469   235.65108640

---------------------------
INTERNAL COORDINATES (A.U.)
---------------------------
 Pd     0   0   0     0.000000000000     0.00000000     0.00000000
 O      1   0   0     3.825686613299     0.00000000     0.00000000
 C      2   1   0     2.377275693085   110.32561668     0.00000000
 O      3   2   1     2.393098975592   122.42530397    26.04894525
 C      3   2   1     2.871474957518   114.88122122   207.54834467
 H      5   3   2     2.053039219577   114.27842315   196.60214417
 H      5   3   2     2.068186447252   109.49846966    75.35301243
 H      5   3   2     2.061427581835   109.93296314   320.00234087
 N      1   2   3     3.981548469915   168.22833085    10.08486160
 C      9   1   2     2.784223862560   116.87000293   140.36033410
 H     10   9   1     2.047549756966   109.84623040   297.43948985
 H     10   9   1     2.069407876099   109.28919971   175.74840140
 H     10   9   1     2.056155674078   109.48362415    56.28400234
 C      9   1   2     2.787824824390   106.98898492    18.16623291
 H     14   9   1     2.058279209270   110.66563106   304.47073305
 H     14   9   1     2.071509824833   109.94244698   185.16603547
 H     14   9   1     2.054099783946   110.12914255    65.46767131
 C      9   1   2     4.654325899780    72.10841258   259.14419484
 C     18   9   1     2.631494776571   137.29795942   242.81804468
 C     19  18   9     2.613695512644   120.61414137   152.99027037
 C     20  19  18     2.616081913225   118.45196932     1.51852142
 C     21  20  19     2.631378698770   120.32278469   351.78037535
 C     22  21  20     2.651992037845   122.96424358     5.36073858
 H     21  20  19     2.044704443263   119.42017631   174.46726678
 H     22  21  20     2.043854892056   117.56975752   183.35241500
 H     19  18   9     2.052235997055   119.74800961   333.95309889
 H     20  19  18     2.048704502535   120.34571209   181.37916447
 H      4   3   2     2.628801066987   109.72591021    10.97988005
 C      9   1   2     2.807223132037   106.25189784   261.27260100
 H     29   9   1     2.067643462210   109.89520552   117.93808438
 H     29   9   1     2.062571521103   108.99065270   233.61112984
 O      1   2   3     3.760983234612    79.25211297   125.49473376
 C     32   1   2     2.428671402173   139.16531713   206.96072624
 O     33  32   1     2.303085276411   127.75538081   355.27867448
 C     33  32   1     2.875288696218   113.34265987   174.58760342
 H     35  33  32     2.060745701803   109.65592698   119.62279773
 H     35  33  32     2.053968326431   113.72318014   357.20096916
 H     35  33  32     2.059780052294   108.18189469   235.65108640

---------------------
BASIS SET INFORMATION
---------------------
There are 5 groups of distinct atoms

 Group   1 Type Pd  : 7s6p5d1f contracted to 5s3p2d1f pattern {31111/411/41/1}
 Group   2 Type O   : 8s4p1d contracted to 4s2p1d pattern {5111/31/1}
 Group   3 Type C   : 8s4p1d contracted to 4s2p1d pattern {5111/31/1}
 Group   4 Type H   : 4s contracted to 2s pattern {31}
 Group   5 Type N   : 8s4p1d contracted to 4s2p1d pattern {5111/31/1}

Atom   0Pd   basis set group =>   1
Atom   1O    basis set group =>   2
Atom   2C    basis set group =>   3
Atom   3O    basis set group =>   2
Atom   4C    basis set group =>   3
Atom   5H    basis set group =>   4
Atom   6H    basis set group =>   4
Atom   7H    basis set group =>   4
Atom   8N    basis set group =>   5
Atom   9C    basis set group =>   3
Atom  10H    basis set group =>   4
Atom  11H    basis set group =>   4
Atom  12H    basis set group =>   4
Atom  13C    basis set group =>   3
Atom  14H    basis set group =>   4
Atom  15H    basis set group =>   4
Atom  16H    basis set group =>   4
Atom  17C    basis set group =>   3
Atom  18C    basis set group =>   3
Atom  19C    basis set group =>   3
Atom  20C    basis set group =>   3
Atom  21C    basis set group =>   3
Atom  22C    basis set group =>   3
Atom  23H    basis set group =>   4
Atom  24H    basis set group =>   4
Atom  25H    basis set group =>   4
Atom  26H    basis set group =>   4
Atom  27H    basis set group =>   4
Atom  28C    basis set group =>   3
Atom  29H    basis set group =>   4
Atom  30H    basis set group =>   4
Atom  31O    basis set group =>   2
Atom  32C    basis set group =>   3
Atom  33O    basis set group =>   2
Atom  34C    basis set group =>   3
Atom  35H    basis set group =>   4
Atom  36H    basis set group =>   4
Atom  37H    basis set group =>   4
---------------------------------
AUXILIARY/J BASIS SET INFORMATION
---------------------------------
There are 5 groups of distinct atoms

 Group   1 Type Pd  : 11s5p5d3f3g contracted to 8s5p5d2f3g pattern {41111111/11111/11111/21/111}
 Group   2 Type O   : 12s5p4d2f1g contracted to 6s4p3d1f1g pattern {711111/2111/211/2/1}
 Group   3 Type C   : 12s5p4d2f1g contracted to 6s4p3d1f1g pattern {711111/2111/211/2/1}
 Group   4 Type H   : 5s2p1d contracted to 3s1p1d pattern {311/2/1}
 Group   5 Type N   : 12s5p4d2f1g contracted to 6s4p3d1f1g pattern {711111/2111/211/2/1}

Atom   0Pd   basis set group =>   1
Atom   1O    basis set group =>   2
Atom   2C    basis set group =>   3
Atom   3O    basis set group =>   2
Atom   4C    basis set group =>   3
Atom   5H    basis set group =>   4
Atom   6H    basis set group =>   4
Atom   7H    basis set group =>   4
Atom   8N    basis set group =>   5
Atom   9C    basis set group =>   3
Atom  10H    basis set group =>   4
Atom  11H    basis set group =>   4
Atom  12H    basis set group =>   4
Atom  13C    basis set group =>   3
Atom  14H    basis set group =>   4
Atom  15H    basis set group =>   4
Atom  16H    basis set group =>   4
Atom  17C    basis set group =>   3
Atom  18C    basis set group =>   3
Atom  19C    basis set group =>   3
Atom  20C    basis set group =>   3
Atom  21C    basis set group =>   3
Atom  22C    basis set group =>   3
Atom  23H    basis set group =>   4
Atom  24H    basis set group =>   4
Atom  25H    basis set group =>   4
Atom  26H    basis set group =>   4
Atom  27H    basis set group =>   4
Atom  28C    basis set group =>   3
Atom  29H    basis set group =>   4
Atom  30H    basis set group =>   4
Atom  31O    basis set group =>   2
Atom  32C    basis set group =>   3
Atom  33O    basis set group =>   2
Atom  34C    basis set group =>   3
Atom  35H    basis set group =>   4
Atom  36H    basis set group =>   4
Atom  37H    basis set group =>   4
-------------------------
ECP PARAMETER INFORMATION
-------------------------

 Group 1, Type Pd ECP Def2-ECP (replacing 28 core electrons, lmax=3)

Atom   0Pd   ECP group =>   1



           ************************************************************
           *        Program running with 8 parallel MPI-processes     *
           *              working on a common directory               *
           ************************************************************
------------------------------------------------------------------------------
                           ORCA GTO INTEGRAL CALCULATION
                           -- RI-GTO INTEGRALS CHOSEN --
------------------------------------------------------------------------------
------------------------------------------------------------------------------
                   ___                                                        
                  /   \      - P O W E R E D   B Y -                         
                 /     \                                                     
                 |  |  |   _    _      __       _____    __    __             
                 |  |  |  | |  | |    /  \     |  _  \  |  |  /  |          
                  \  \/   | |  | |   /    \    | | | |  |  | /  /          
                 / \  \   | |__| |  /  /\  \   | |_| |  |  |/  /          
                |  |  |   |  __  | /  /__\  \  |    /   |      \           
                |  |  |   | |  | | |   __   |  |    \   |  |\   \          
                \     /   | |  | | |  |  |  |  | |\  \  |  | \   \       
                 \___/    |_|  |_| |__|  |__|  |_| \__\ |__|  \__/        
                                                                              
                      - O R C A' S   B I G   F R I E N D -                    
                                      &                                       
                       - I N T E G R A L  F E E D E R -                       
                                                                              
 v1 FN, 2020, v2 2021                                                         
------------------------------------------------------------------------------


Reading SHARK input file reaction-1-ieip_optts_Compound_1.SHARKINP.tmp ... ok
----------------------
SHARK INTEGRAL PACKAGE
----------------------

Number of atoms                             ...     38
Number of basis functions                   ...    339
Number of shells                            ...    175
Maximum angular momentum                    ...      3
Integral batch strategy                     ... SHARK/LIBINT Hybrid
RI-J (if used) integral strategy            ... SPLIT-RIJ (Revised 2003 algorithm where possible)
Printlevel                                  ...      1
Contraction scheme used                     ... SEGMENTED contraction
Coulomb Range Separation                    ... NOT USED
Exchange Range Separation                   ... NOT USED
Finite Nucleus Model                        ... NOT USED
Auxiliary Coulomb fitting basis             ... AVAILABLE
   # of basis functions in Aux-J            ...   1180
   # of shells in Aux-J                     ...    388
   Maximum angular momentum in Aux-J        ...      4
Auxiliary J/K fitting basis                 ... NOT available
Auxiliary Correlation fitting basis         ... NOT available
Auxiliary 'external' fitting basis          ... NOT available
Integral threshold                          ...     2.500000e-11
Primitive cut-off                           ...     2.500000e-12
Primitive pair pre-selection threshold      ...     2.500000e-12

Calculating pre-screening integrals         ... done (  0.0 sec) Dimension = 175
Organizing shell pair data                  ... done (  0.2 sec)
Shell pair information
Total number of shell pairs                 ...     15400
Shell pairs after pre-screening             ...     11061
Total number of primitive shell pairs       ...     54591
Primitive shell pairs kept                  ...     24839
          la=0 lb=0:   4260 shell pairs
          la=1 lb=0:   3630 shell pairs
          la=1 lb=1:    724 shell pairs
          la=2 lb=0:   1499 shell pairs
          la=2 lb=1:    652 shell pairs
          la=2 lb=2:    147 shell pairs
          la=3 lb=0:     90 shell pairs
          la=3 lb=1:     39 shell pairs
          la=3 lb=2:     19 shell pairs
          la=3 lb=3:      1 shell pairs

Calculating one electron integrals          ... done (  0.0 sec)
Calculating ECP integrals                   ... done (  0.5 sec)
Calculating RI/J V-Matrix + Cholesky decomp.... done (  0.1 sec)
Calculating Nuclear repulsion               ... done (  0.0 sec) ENN=   1757.403458295808 Eh

SHARK setup successfully completed in   1.0 seconds

Maximum memory used throughout the entire GTOINT-calculation: 24.6 MB


           ************************************************************
           *        Program running with 8 parallel MPI-processes     *
           *              working on a common directory               *
           ************************************************************
-------------------------------------------------------------------------------
                                 ORCA SCF
-------------------------------------------------------------------------------

------------
SCF SETTINGS
------------
Hamiltonian:
 Density Functional     Method          .... DFT(GTOs)
 Exchange Functional    Exchange        .... PBE
   PBE kappa parameter   XKappa         ....  1.024500
   PBE mue parameter    XMuePBE         ....  0.123457
 Correlation Functional Correlation     .... PBE
   PBE beta parameter  CBetaPBE         ....  0.030000
 LDA part of GGA corr.  LDAOpt          .... PW91-LDA
 Gradients option       PostSCFGGA      .... off
 Hybrid DFT is turned on
   Fraction HF Exchange ScalHFX         ....  0.420000
   Scaling of DF-GGA-X  ScalDFX         ....  0.580000
   Scaling of DF-GGA-C  ScalDFC         ....  1.000000
   Scaling of DF-LDA-C  ScalLDAC        ....  1.000000
   Perturbative correction              ....  0.000000
   Density functional embedding theory  .... OFF
 RI-approximation to the Coulomb term is turned on
   Number of AuxJ basis functions       .... 1180
   RIJ-ON(X) (HFX calculated with O(N)) .... on
   Number of AuxJ basis functions       .... 1180
   RIJ-COSX (HFX calculated with COS-X)).... on


General Settings:
 Integral files         IntName         .... reaction-1-ieip_optts_Compound_1
 Hartree-Fock type      HFTyp           .... RHF
 Total Charge           Charge          ....    0
 Multiplicity           Mult            ....    1
 Number of Electrons    NEL             ....  154
 Basis Dimension        Dim             ....  339
 Nuclear Repulsion      ENuc            ....   1757.4034582958 Eh

Convergence Acceleration:
 DIIS                   CNVDIIS         .... on
   Start iteration      DIISMaxIt       ....    12
   Startup error        DIISStart       ....  0.200000
   # of expansion vecs  DIISMaxEq       ....     5
   Bias factor          DIISBfac        ....   1.050
   Max. coefficient     DIISMaxC        ....  10.000
 Trust-Rad. Augm. Hess. CNVTRAH         .... auto
   Auto Start mean grad. ratio tolernc. ....  1.125000
   Auto Start start iteration           ....    20
   Auto Start num. interpolation iter.  ....    10
   Max. Number of Micro iterations      ....    16
   Max. Number of Macro iterations      .... Maxiter - #DIIS iter
   Number of Davidson start vectors     ....     2
   Converg. threshold I  (grad. norm)   ....   1.000e-05
   Converg. threshold II (energy diff.) ....   1.000e-08
   Grad. Scal. Fac. for Micro threshold ....   0.100
   Minimum threshold for Micro iter.    ....   0.010
   NR start threshold (gradient norm)   ....   0.001
   Initial trust radius                 ....   0.400
   Minimum AH scaling param. (alpha)    ....   1.000
   Maximum AH scaling param. (alpha)    .... 1000.000
   Orbital update algorithm             .... Taylor
   White noise on init. David. guess    .... on
   Maximum white noise                  ....   0.010
   Quad. conv. algorithm                .... NR
   COSX micro iterations for RIJONX calc.... off
 SOSCF                  CNVSOSCF        .... off
 Level Shifting         CNVShift        .... on
   Level shift para.    LevelShift      ....    0.2500
   Turn off err/grad.   ShiftErr        ....    0.0010
 Zerner damping         CNVZerner       .... off
 Static damping         CNVDamp         .... on
   Fraction old density DampFac         ....    0.7000
   Max. Damping (<1)    DampMax         ....    0.9800
   Min. Damping (>=0)   DampMin         ....    0.0000
   Turn off err/grad.   DampErr         ....    0.1000
 Fernandez-Rico         CNVRico         .... off

SCF Procedure:
 Maximum # iterations   MaxIter         ....   125
 SCF integral mode      SCFMode         .... Direct
   Integral package                     .... SHARK and LIBINT hybrid scheme
 Reset frequency        DirectResetFreq ....    20
 Integral Threshold     Thresh          ....  2.500e-11 Eh
 Primitive CutOff       TCut            ....  2.500e-12 Eh

Convergence Tolerance:
 Convergence Check Mode ConvCheckMode   .... Total+1el-Energy
 Convergence forced     ConvForced      .... 0
 Energy Change          TolE            ....  1.000e-08 Eh
 1-El. energy change                    ....  1.000e-05 Eh
 DIIS Error             TolErr          ....  5.000e-07


Diagonalization of the overlap matrix:
Smallest eigenvalue                        ... 4.793e-04
Time for diagonalization                   ...    0.021 sec
Threshold for overlap eigenvalues          ... 1.000e-08
Number of eigenvalues below threshold      ... 0
Time for construction of square roots      ...    0.010 sec
Total time needed                          ...    0.033 sec

--------------------------------
INITIAL GUESS: MINIMAL BASIS EHT
--------------------------------
The minimal basis has 122 functions
EHT matrix was diagonalized
Basis set overlap was calculated now projecting the orbitals
Using GuessMode=FMatrix for the initial guess
C*T matrix was formed
Effective Fockian was calculated
Effective Fockian was diagonalized
Initial density was built
                      ------------------
                      INITIAL GUESS DONE
                      ------------------
-------------------
DFT GRID GENERATION
-------------------

General Integration Accuracy     IntAcc      ... 4.159
Radial Grid Type                 RadialGrid  ... OptM3 with GC (2021)
Angular Grid (max. ang.)         AngularGrid ... 3 (Lebedev-194)
Angular grid pruning method      GridPruning ... 4 (adaptive)
Weight generation scheme         WeightScheme... Becke
Basis function cutoff            BFCut       ... 1.0000e-11
Integration weight cutoff        WCut        ... 1.0000e-14
Angular grids for H and He will be reduced by one unit
Partially contracted basis set               ... off
Rotationally invariant grid construction     ... off

Total number of grid points                  ...    89821
Total number of batches                      ...     1422
Average number of points per batch           ...       63
Average number of grid points per atom       ...     2364
Time for grid setup =    0.405 sec

--------------------
COSX GRID GENERATION
--------------------

GRIDX 1
-------
General Integration Accuracy     IntAcc      ... 3.816
Radial Grid Type                 RadialGrid  ... OptM3 with GC (2021)
Angular Grid (max. ang.)         AngularGrid ... 1 (Lebedev-50)
Angular grid pruning method      GridPruning ... 4 (adaptive)
Weight generation scheme         WeightScheme... Becke
Basis function cutoff            BFCut       ... 1.0000e-11
Integration weight cutoff        WCut        ... 1.0000e-14
Angular grids for H and He will be reduced by one unit
Partially contracted basis set               ... on
Rotationally invariant grid construction     ... off

Total number of grid points                  ...    22412
Total number of batches                      ...      369
Average number of points per batch           ...       60
Average number of grid points per atom       ...      590
UseSFitting                                  ... on

GRIDX 2
-------
General Integration Accuracy     IntAcc      ... 4.020
Radial Grid Type                 RadialGrid  ... OptM3 with GC (2021)
Angular Grid (max. ang.)         AngularGrid ... 2 (Lebedev-110)
Angular grid pruning method      GridPruning ... 4 (adaptive)
Weight generation scheme         WeightScheme... Becke
Basis function cutoff            BFCut       ... 1.0000e-11
Integration weight cutoff        WCut        ... 1.0000e-14
Angular grids for H and He will be reduced by one unit
Partially contracted basis set               ... on
Rotationally invariant grid construction     ... off

Total number of grid points                  ...    48143
Total number of batches                      ...      770
Average number of points per batch           ...       62
Average number of grid points per atom       ...     1267
UseSFitting                                  ... on

GRIDX 3
-------
General Integration Accuracy     IntAcc      ... 4.338
Radial Grid Type                 RadialGrid  ... OptM3 with GC (2021)
Angular Grid (max. ang.)         AngularGrid ... 3 (Lebedev-194)
Angular grid pruning method      GridPruning ... 4 (adaptive)
Weight generation scheme         WeightScheme... Becke
Basis function cutoff            BFCut       ... 1.0000e-11
Integration weight cutoff        WCut        ... 1.0000e-14
Angular grids for H and He will be reduced by one unit
Partially contracted basis set               ... on
Rotationally invariant grid construction     ... off

Total number of grid points                  ...   104219
Total number of batches                      ...     1648
Average number of points per batch           ...       63
Average number of grid points per atom       ...     2743
UseSFitting                                  ... on

Time for X-Grid setup             =    0.967 sec

--------------
SCF ITERATIONS
--------------
ITER       Energy         Delta-E        Max-DP      RMS-DP      [F,P]     Damp
               ***  Starting incremental Fock matrix formation  ***
  0   -976.9794748788   0.000000000000 2.75332556  0.02515054  5.2705333 0.7000
  1   -978.4747628529  -1.495287974118 0.84159462  0.01085553  3.8841852 0.7000
  2   -981.0038009535  -2.529038100549 0.49891045  0.00631523  2.7690875 0.7000
  3   -983.2245808904  -2.220779936931 0.35877935  0.00450378  1.9536323 0.7000
  4   -984.7779738501  -1.553392959719 0.25091249  0.00318545  1.3689702 0.7000
  5   -985.8784286956  -1.100454845453 0.16993615  0.00225307  0.9567609 0.7000
  6   -986.6607329935  -0.782304297947 0.11729344  0.00159846  0.6689117 0.7000
  7   -987.2156219615  -0.554888968004 0.08198757  0.00113767  0.4682288 0.7000
  8   -987.6080942989  -0.392472337394 0.05737907  0.00081192  0.3279796 0.7000
  9   -987.8850565139  -0.276962214958 0.04018013  0.00058101  0.2297240 0.7000
                               ***Turning on DIIS***
 10   -988.0801749527  -0.195118438860 0.02813951  0.00041714  0.1608264 0.7000
 11   -988.2174663208  -0.137291368093 0.01971219  0.00030886  0.1125339 0.7000
 12   -988.3140119640  -0.096545643184 0.04601013  0.00076268  0.0786954 0.0000
 13   -988.5411198776  -0.227107913549 0.00951832  0.00007391  0.0041594 0.0000
 14   -988.5413580689  -0.000238191322 0.01016287  0.00007325  0.0032662 0.0000
 15   -988.5415253218  -0.000167252906 0.00756124  0.00005463  0.0022608 0.0000
 16   -988.5416075654  -0.000082243637 0.00467369  0.00003561  0.0014741 0.0000
 17   -988.5416435917  -0.000036026238 0.00755464  0.00005958  0.0009730 0.0000
               *** Restarting incremental Fock matrix formation ***
                                   *** Resetting DIIS ***
 18   -988.5415542629   0.000089328753 0.00178088  0.00003082  0.0002332 0.0000
 19   -988.5415564947  -0.000002231798 0.00032879  0.00000490  0.0003511 0.0000
 20   -988.5415570110  -0.000000516267 0.00024382  0.00000334  0.0002171 0.0000
 21   -988.5415572624  -0.000000251386 0.00012931  0.00000131  0.0000545 0.0000
 22   -988.5415573224  -0.000000060082 0.00013493  0.00000121  0.0000345 0.0000
 23   -988.5415573479  -0.000000025420 0.00008053  0.00000071  0.0000192 0.0000
 24   -988.5415573487  -0.000000000817 0.00006359  0.00000055  0.0000102 0.0000
 25   -988.5415573488  -0.000000000086 0.00001484  0.00000014  0.0000041 0.0000
 26   -988.5415573420   0.000000006799 0.00000579  0.00000006  0.0000025 0.0000
 27   -988.5415573563  -0.000000014298 0.00000211  0.00000002  0.0000011 0.0000
                 **** Energy Check signals convergence ****

               *****************************************************
               *                     SUCCESS                       *
               *           SCF CONVERGED AFTER  28 CYCLES          *
               *****************************************************

Old exchange energy                            =    -52.681629416 Eh
New exchange energy                            =    -52.681663607 Eh
Exchange energy change after final integration =     -0.000034192 Eh
Total energy after final integration           =   -988.541591544 Eh
Final COS-X integration done in                =     6.486 sec

----------------
TOTAL SCF ENERGY
----------------

Total Energy       :         -988.54159154 Eh          -26899.58425 eV

Components:
Nuclear Repulsion  :         1757.40345830 Eh           47821.37929 eV
Electronic Energy  :        -2745.94504984 Eh          -74720.96355 eV
One Electron Energy:        -4895.63488877 Eh         -133216.99794 eV
Two Electron Energy:         2149.68983893 Eh           58496.03440 eV
Max COSX asymmetry :            0.00003725 Eh               0.00101 eV

Virial components:
Potential Energy   :        -1890.49398917 Eh          -51442.95675 eV
Kinetic Energy     :          901.95239763 Eh           24543.37250 eV
Virial Ratio       :            2.09600196


DFT components:
N(Alpha)           :       76.999730605490 electrons
N(Beta)            :       76.999730605490 electrons
N(Total)           :      153.999461210979 electrons
E(X)               :      -70.259991474128 Eh       
E(C)               :       -6.932636629761 Eh       
E(XC)              :      -77.192628103889 Eh       
DFET-embed. en.    :        0.000000000000 Eh       

---------------
SCF CONVERGENCE
---------------

  Last Energy change         ...    3.8933e-09  Tolerance :   1.0000e-08
  Last MAX-Density change    ...    0.0000e+00  Tolerance :   1.0000e-07
  Last RMS-Density change    ...    0.0000e+00  Tolerance :   5.0000e-09
  Last DIIS Error            ...    7.5300e-07  Tolerance :   5.0000e-07

             **** THE GBW FILE WAS UPDATED (reaction-1-ieip_optts_Compound_1.gbw) ****
             **** DENSITY reaction-1-ieip_optts_Compound_1.scfp WAS UPDATED ****
             **** ENERGY FILE WAS UPDATED (reaction-1-ieip_optts_Compound_1.en.tmp) ****
             **** THE GBW FILE WAS UPDATED (reaction-1-ieip_optts_Compound_1.gbw) ****
             **** DENSITY reaction-1-ieip_optts_Compound_1.scfp WAS UPDATED ****
----------------
ORBITAL ENERGIES
----------------

  NO   OCC          E(Eh)            E(eV) 
   0   2.0000     -19.506392      -530.7959 
   1   2.0000     -19.504566      -530.7462 
   2   2.0000     -19.469622      -529.7954 
   3   2.0000     -19.427603      -528.6520 
   4   2.0000     -14.722953      -400.6319 
   5   2.0000     -10.583275      -287.9856 
   6   2.0000     -10.530455      -286.5483 
   7   2.0000     -10.497136      -285.6416 
   8   2.0000     -10.484492      -285.2975 
   9   2.0000     -10.480314      -285.1838 
  10   2.0000     -10.469323      -284.8848 
  11   2.0000     -10.463291      -284.7206 
  12   2.0000     -10.461895      -284.6826 
  13   2.0000     -10.461577      -284.6740 
  14   2.0000     -10.460705      -284.6503 
  15   2.0000     -10.456908      -284.5469 
  16   2.0000     -10.447263      -284.2845 
  17   2.0000     -10.408463      -283.2287 
  18   2.0000      -3.671939       -99.9185 
  19   2.0000      -2.319327       -63.1121 
  20   2.0000      -2.315389       -63.0049 
  21   2.0000      -2.282384       -62.1068 
  22   2.0000      -1.204560       -32.7777 
  23   2.0000      -1.145291       -31.1650 
  24   2.0000      -1.101345       -29.9691 
  25   2.0000      -1.078792       -29.3554 
  26   2.0000      -1.053802       -28.6754 
  27   2.0000      -0.971552       -26.4373 
  28   2.0000      -0.883564       -24.0430 
  29   2.0000      -0.849076       -23.1045 
  30   2.0000      -0.830782       -22.6067 
  31   2.0000      -0.818631       -22.2761 
  32   2.0000      -0.796629       -21.6774 
  33   2.0000      -0.789036       -21.4708 
  34   2.0000      -0.718700       -19.5568 
  35   2.0000      -0.691889       -18.8273 
  36   2.0000      -0.674260       -18.3475 
  37   2.0000      -0.638181       -17.3658 
  38   2.0000      -0.600241       -16.3334 
  39   2.0000      -0.598126       -16.2758 
  40   2.0000      -0.580596       -15.7988 
  41   2.0000      -0.570249       -15.5173 
  42   2.0000      -0.566801       -15.4234 
  43   2.0000      -0.554234       -15.0815 
  44   2.0000      -0.546394       -14.8681 
  45   2.0000      -0.531317       -14.4579 
  46   2.0000      -0.526329       -14.3221 
  47   2.0000      -0.516039       -14.0421 
  48   2.0000      -0.512784       -13.9536 
  49   2.0000      -0.493993       -13.4422 
  50   2.0000      -0.489657       -13.3243 
  51   2.0000      -0.486109       -13.2277 
  52   2.0000      -0.482492       -13.1293 
  53   2.0000      -0.478981       -13.0337 
  54   2.0000      -0.464234       -12.6324 
  55   2.0000      -0.453167       -12.3313 
  56   2.0000      -0.450008       -12.2453 
  57   2.0000      -0.445814       -12.1312 
  58   2.0000      -0.438769       -11.9395 
  59   2.0000      -0.430509       -11.7147 
  60   2.0000      -0.425467       -11.5776 
  61   2.0000      -0.424965       -11.5639 
  62   2.0000      -0.413618       -11.2551 
  63   2.0000      -0.405712       -11.0400 
  64   2.0000      -0.403225       -10.9723 
  65   2.0000      -0.388753       -10.5785 
  66   2.0000      -0.374660       -10.1950 
  67   2.0000      -0.364296        -9.9130 
  68   2.0000      -0.353440        -9.6176 
  69   2.0000      -0.337649        -9.1879 
  70   2.0000      -0.334566        -9.1040 
  71   2.0000      -0.315158        -8.5759 
  72   2.0000      -0.307811        -8.3760 
  73   2.0000      -0.303136        -8.2487 
  74   2.0000      -0.296423        -8.0661 
  75   2.0000      -0.282163        -7.6781 
  76   2.0000      -0.280205        -7.6248 
  77   0.0000      -0.068530        -1.8648 
  78   0.0000       0.001359         0.0370 
  79   0.0000       0.008319         0.2264 
  80   0.0000       0.039764         1.0820 
  81   0.0000       0.058882         1.6023 
  82   0.0000       0.067472         1.8360 
  83   0.0000       0.097459         2.6520 
  84   0.0000       0.098646         2.6843 
  85   0.0000       0.104343         2.8393 
  86   0.0000       0.132345         3.6013 
  87   0.0000       0.134030         3.6471 
  88   0.0000       0.146209         3.9786 
  89   0.0000       0.154509         4.2044 
  90   0.0000       0.165552         4.5049 
  91   0.0000       0.175730         4.7818 
  92   0.0000       0.179450         4.8831 
  93   0.0000       0.191039         5.1984 
  94   0.0000       0.199501         5.4287 
  95   0.0000       0.203429         5.5356 
  96   0.0000       0.205938         5.6039 
  97   0.0000       0.211125         5.7450 
  98   0.0000       0.216383         5.8881 
  99   0.0000       0.223102         6.0709 
 100   0.0000       0.226987         6.1766 
 101   0.0000       0.229774         6.2525 
 102   0.0000       0.231254         6.2927 
 103   0.0000       0.244439         6.6515 
 104   0.0000       0.245547         6.6817 
 105   0.0000       0.253337         6.8937 
 106   0.0000       0.257431         7.0051 
 107   0.0000       0.263799         7.1783 
 108   0.0000       0.267072         7.2674 
 109   0.0000       0.275003         7.4832 
 110   0.0000       0.277258         7.5446 
 111   0.0000       0.287791         7.8312 
 112   0.0000       0.312053         8.4914 
 113   0.0000       0.313435         8.5290 
 114   0.0000       0.327225         8.9042 
 115   0.0000       0.342544         9.3211 
 116   0.0000       0.358450         9.7539 
 117   0.0000       0.378977        10.3125 
 118   0.0000       0.394404        10.7323 
 119   0.0000       0.412278        11.2186 
 120   0.0000       0.428134        11.6501 
 121   0.0000       0.435093        11.8395 
 122   0.0000       0.451864        12.2958 
 123   0.0000       0.475499        12.9390 
 124   0.0000       0.486137        13.2285 
 125   0.0000       0.506801        13.7907 
 126   0.0000       0.513044        13.9606 
 127   0.0000       0.519736        14.1427 
 128   0.0000       0.524669        14.2770 
 129   0.0000       0.540291        14.7021 
 130   0.0000       0.542590        14.7646 
 131   0.0000       0.552736        15.0407 
 132   0.0000       0.560347        15.2478 
 133   0.0000       0.566749        15.4220 
 134   0.0000       0.569071        15.4852 
 135   0.0000       0.578306        15.7365 
 136   0.0000       0.583281        15.8719 
 137   0.0000       0.591652        16.0997 
 138   0.0000       0.600755        16.3474 
 139   0.0000       0.602872        16.4050 
 140   0.0000       0.604397        16.4465 
 141   0.0000       0.611277        16.6337 
 142   0.0000       0.623540        16.9674 
 143   0.0000       0.625532        17.0216 
 144   0.0000       0.634045        17.2532 
 145   0.0000       0.639201        17.3936 
 146   0.0000       0.643988        17.5238 
 147   0.0000       0.645748        17.5717 
 148   0.0000       0.662105        18.0168 
 149   0.0000       0.673009        18.3135 
 150   0.0000       0.679896        18.5009 
 151   0.0000       0.691068        18.8049 
 152   0.0000       0.695423        18.9234 
 153   0.0000       0.703572        19.1452 
 154   0.0000       0.722789        19.6681 
 155   0.0000       0.739188        20.1143 
 156   0.0000       0.755263        20.5518 
 157   0.0000       0.778734        21.1904 
 158   0.0000       0.787105        21.4182 
 159   0.0000       0.799206        21.7475 
 160   0.0000       0.810042        22.0424 
 161   0.0000       0.832246        22.6466 
 162   0.0000       0.849564        23.1178 
 163   0.0000       0.860928        23.4271 
 164   0.0000       0.873934        23.7809 
 165   0.0000       0.892078        24.2747 
 166   0.0000       0.910973        24.7888 
 167   0.0000       0.916243        24.9322 
 168   0.0000       0.926177        25.2026 
 169   0.0000       0.944247        25.6943 
 170   0.0000       0.964009        26.2320 
 171   0.0000       0.966678        26.3046 
 172   0.0000       0.974680        26.5224 
 173   0.0000       0.981031        26.6952 
 174   0.0000       0.988895        26.9092 
 175   0.0000       0.993902        27.0454 
 176   0.0000       1.001052        27.2400 
 177   0.0000       1.007032        27.4027 
 178   0.0000       1.014757        27.6129 
 179   0.0000       1.020773        27.7766 
 180   0.0000       1.024634        27.8817 
 181   0.0000       1.028614        27.9900 
 182   0.0000       1.052934        28.6518 
 183   0.0000       1.058521        28.8038 
 184   0.0000       1.065529        28.9945 
 185   0.0000       1.070177        29.1210 
 186   0.0000       1.075887        29.2764 
 187   0.0000       1.084575        29.5128 
 188   0.0000       1.085799        29.5461 
 189   0.0000       1.095224        29.8026 
 190   0.0000       1.100632        29.9497 
 191   0.0000       1.107840        30.1459 
 192   0.0000       1.128123        30.6978 
 193   0.0000       1.140276        31.0285 
 194   0.0000       1.149607        31.2824 
 195   0.0000       1.151840        31.3432 
 196   0.0000       1.178545        32.0698 
 197   0.0000       1.182754        32.1844 
 198   0.0000       1.202933        32.7335 
 199   0.0000       1.209560        32.9138 
 200   0.0000       1.229049        33.4441 
 201   0.0000       1.230444        33.4821 
 202   0.0000       1.240300        33.7503 
 203   0.0000       1.266976        34.4762 
 204   0.0000       1.268432        34.5158 
 205   0.0000       1.277294        34.7569 
 206   0.0000       1.309705        35.6389 
 207   0.0000       1.347433        36.6655 
 208   0.0000       1.351855        36.7858 
 209   0.0000       1.388235        37.7758 
 210   0.0000       1.404072        38.2067 
 211   0.0000       1.410235        38.3745 
 212   0.0000       1.435752        39.0688 
 213   0.0000       1.455135        39.5962 
 214   0.0000       1.467566        39.9345 
 215   0.0000       1.478146        40.2224 
 216   0.0000       1.481557        40.3152 
 217   0.0000       1.495174        40.6858 
 218   0.0000       1.505964        40.9794 
 219   0.0000       1.510129        41.0927 
 220   0.0000       1.538019        41.8516 
 221   0.0000       1.557785        42.3895 
 222   0.0000       1.563172        42.5361 
 223   0.0000       1.570100        42.7246 
 224   0.0000       1.581847        43.0443 
 225   0.0000       1.628750        44.3206 
 226   0.0000       1.654342        45.0169 
 227   0.0000       1.706056        46.4242 
 228   0.0000       1.731477        47.1159 
 229   0.0000       1.749561        47.6080 
 230   0.0000       1.769063        48.1386 
 231   0.0000       1.793927        48.8152 
 232   0.0000       1.802741        49.0551 
 233   0.0000       1.827405        49.7262 
 234   0.0000       1.847915        50.2843 
 235   0.0000       1.859155        50.5902 
 236   0.0000       1.871893        50.9368 
 237   0.0000       1.876702        51.0676 
 238   0.0000       1.893838        51.5340 
 239   0.0000       1.909983        51.9733 
 240   0.0000       1.928763        52.4843 
 241   0.0000       1.930255        52.5249 
 242   0.0000       1.947252        52.9874 
 243   0.0000       1.952472        53.1295 
 244   0.0000       1.967873        53.5486 
 245   0.0000       1.973062        53.6898 
 246   0.0000       1.975740        53.7626 
 247   0.0000       1.988569        54.1117 
 248   0.0000       1.999589        54.4116 
 249   0.0000       2.008485        54.6537 
 250   0.0000       2.013614        54.7932 
 251   0.0000       2.026480        55.1433 
 252   0.0000       2.038289        55.4647 
 253   0.0000       2.053227        55.8712 
 254   0.0000       2.071334        56.3639 
 255   0.0000       2.084695        56.7274 
 256   0.0000       2.097061        57.0639 
[...]
Electron density                                ... reaction-1-ieip_optts_Compound_2.scfp
The origin for moment calculation is the CENTER OF MASS  = ( 0.391374,  0.255532  0.057560)

-------------
DIPOLE MOMENT
-------------
                                X             Y             Z
Electronic contribution:     25.49696      -5.84770      -9.81631
Nuclear contribution   :    -26.87814       4.15725      10.64146
                        -----------------------------------------
Total Dipole Moment    :     -1.38118      -1.69045       0.82515
                        -----------------------------------------
Magnitude (a.u.)       :      2.33370
Magnitude (Debye)      :      5.93179



--------------------
Rotational spectrum 
--------------------
 
Rotational constants in cm-1:     0.016071     0.009699     0.006866 
Rotational constants in MHz :   481.794383   290.764921   205.833607 

 Dipole components along the rotational axes: 
x,y,z [a.u.] :     1.903085    -1.309616    -0.330645 
x,y,z [Debye]:     4.837256    -3.328780    -0.840433 

 



--------------------------------------------------------------------------------
                   Intrinsic Reaction Coordinate Calculation
--------------------------------------------------------------------------------

System:
Nr. of atoms                        .... 38
Algorithm: SD (steepest descent step) plus correction
Settings:
Max. no of cycles        MaxIter    .... 600
Direction                           .... Forward and backward
Initial displacement Hessian type   .... Read
Hessian Filename                    .... reaction-1-ieip_optts_Compound_1.hess
Following Hessian mode              .... 0
Initial displacement type           .... Energy
  Initial displacement energy change.... 2.000 mEh
Coordinate system following type    .... Cartesian
Length of steepest descent step     .... 0.150 bohr
Do parabolic fit 
  if SD step is uphill              .... YES
Do Correction to SD step            .... YES
Scaling for length of correction
  compared to SD step               .... 0.333
Do parabolic fit to SD correction   .... YES
Only interpolate for parabolic fit  .... YES
Do update to length of
  SD step and correction            .... YES
Convergence Tolerances:
  Max. Gradient            TolMAXG  ....  2.0000e-03 Eh/bohr
  RMS Gradient             TolRMSG  ....  5.0000e-04 Eh/bohr
Storing full IRC trajectory in      .... reaction-1-ieip_optts_Compound_2_IRC_Full_trj.xyz
Storing forward trajectory in       .... reaction-1-ieip_optts_Compound_2_IRC_F_trj.xyz
Storing backward trajectory in      .... reaction-1-ieip_optts_Compound_2_IRC_B_trj.xyz


 ...good, the file reaction-1-ieip_optts_Compound_1.hess exists
Reading the hessian file           ...... done
Determining length of initial displacement:
  Requested energy change (quadratic behavior): 2.000 mEh
  Resulting scaling factor for initial displacement along normalized TS mode: 0.2666

         *************************************************************
         *                          FORWARD IRC                      *
         *************************************************************

 ** NOTE ** -> element pd will be treated as ni
Iteration    E(Eh)      dE(kcal/mol)  max(|G|)   RMS(G) 
Convergence thresholds                0.002000  0.000500            
    0      -988.532280   -0.506789    0.010490  0.002100
 ** NOTE ** -> element pd will be treated as ni
 ** NOTE ** -> element pd will be treated as ni
 ** NOTE ** -> element pd will be treated as ni
 ** NOTE ** -> element pd will be treated as ni
 ** NOTE ** -> element pd will be treated as ni
 ** NOTE ** -> element pd will be treated as ni
    1      -988.532733   -0.791217    0.005714  0.001392
 ** NOTE ** -> element pd will be treated as ni
 ** NOTE ** -> element pd will be treated as ni
 ** NOTE ** -> element pd will be treated as ni
 ** NOTE ** -> element pd will be treated as ni
 ** NOTE ** -> element pd will be treated as ni
 ** NOTE ** -> element pd will be treated as ni
    2      -988.532962   -0.934826    0.004891  0.001034
 ** NOTE ** -> element pd will be treated as ni
 ** NOTE ** -> element pd will be treated as ni
 ** NOTE ** -> element pd will be treated as ni
 ** NOTE ** -> element pd will be treated as ni
    3      -988.533271   -1.128699    0.004368  0.000833
 ** NOTE ** -> element pd will be treated as ni
 ** NOTE ** -> element pd will be treated as ni
 ** NOTE ** -> element pd will be treated as ni
 ** NOTE ** -> element pd will be treated as ni
    4      -988.533586   -1.326186    0.003884  0.000787
 ** NOTE ** -> element pd will be treated as ni
 ** NOTE ** -> element pd will be treated as ni
 ** NOTE ** -> element pd will be treated as ni
 ** NOTE ** -> element pd will be treated as ni
    5      -988.533885   -1.514241    0.003850  0.000755
 ** NOTE ** -> element pd will be treated as ni
 ** NOTE ** -> element pd will be treated as ni
 ** NOTE ** -> element pd will be treated as ni
 ** NOTE ** -> element pd will be treated as ni
    6      -988.534166   -1.690199    0.003185  0.000712
 ** NOTE ** -> element pd will be treated as ni
 ** NOTE ** -> element pd will be treated as ni
 ** NOTE ** -> element pd will be treated as ni
 ** NOTE ** -> element pd will be treated as ni
    7      -988.534435   -1.858933    0.002936  0.000679
 ** NOTE ** -> element pd will be treated as ni
 ** NOTE ** -> element pd will be treated as ni
 ** NOTE ** -> element pd will be treated as ni
 ** NOTE ** -> element pd will be treated as ni
    8      -988.534688   -2.017917    0.002318  0.000647
 ** NOTE ** -> element pd will be treated as ni
 ** NOTE ** -> element pd will be treated as ni
 ** NOTE ** -> element pd will be treated as ni
 ** NOTE ** -> element pd will be treated as ni
    9      -988.534929   -2.169403    0.002258  0.000618
 ** NOTE ** -> element pd will be treated as ni
 ** NOTE ** -> element pd will be treated as ni
 ** NOTE ** -> element pd will be treated as ni
 ** NOTE ** -> element pd will be treated as ni
   10      -988.535158   -2.312538    0.002201  0.000588
 ** NOTE ** -> element pd will be treated as ni
 ** NOTE ** -> element pd will be treated as ni
 ** NOTE ** -> element pd will be treated as ni
 ** NOTE ** -> element pd will be treated as ni
   11      -988.535376   -2.449892    0.002099  0.000563
 ** NOTE ** -> element pd will be treated as ni
 ** NOTE ** -> element pd will be treated as ni
 ** NOTE ** -> element pd will be treated as ni
 ** NOTE ** -> element pd will be treated as ni
   12      -988.535584   -2.580094    0.001962  0.000541
 ** NOTE ** -> element pd will be treated as ni
 ** NOTE ** -> element pd will be treated as ni
 ** NOTE ** -> element pd will be treated as ni
 ** NOTE ** -> element pd will be treated as ni
   13      -988.535782   -2.704619    0.001982  0.000520
 ** NOTE ** -> element pd will be treated as ni
 ** NOTE ** -> element pd will be treated as ni
 ** NOTE ** -> element pd will be treated as ni
 ** NOTE ** -> element pd will be treated as ni
   14      -988.535970   -2.822576    0.001870  0.000510
 ** NOTE ** -> element pd will be treated as ni
 ** NOTE ** -> element pd will be treated as ni
 ** NOTE ** -> element pd will be treated as ni
 ** NOTE ** -> element pd will be treated as ni
   15      -988.536148   -2.933890    0.001836  0.000494

                      ***********************HURRAY********************
                      ***            THE IRC HAS CONVERGED          ***
                      *************************************************


         *************************************************************
         *                          BACKWARD IRC                     *
         *************************************************************

 ** NOTE ** -> element pd will be treated as ni
Iteration    E(Eh)      dE(kcal/mol)  max(|G|)   RMS(G) 
Convergence thresholds                0.002000  0.000500            
    0      -988.534125   -1.664540    0.018210  0.002767
 ** NOTE ** -> element pd will be treated as ni
 ** NOTE ** -> element pd will be treated as ni
 ** NOTE ** -> element pd will be treated as ni
 ** NOTE ** -> element pd will be treated as ni
    1      -988.538530   -4.428710    0.027068  0.003356
 ** NOTE ** -> element pd will be treated as ni
 ** NOTE ** -> element pd will be treated as ni
 ** NOTE ** -> element pd will be treated as ni
 ** NOTE ** -> element pd will be treated as ni
    2      -988.543273   -7.404944    0.023107  0.002955
 ** NOTE ** -> element pd will be treated as ni
 ** NOTE ** -> element pd will be treated as ni
 ** NOTE ** -> element pd will be treated as ni
 ** NOTE ** -> element pd will be treated as ni
    3      -988.547225   -9.885035    0.014786  0.002333
 ** NOTE ** -> element pd will be treated as ni
 ** NOTE ** -> element pd will be treated as ni
 ** NOTE ** -> element pd will be treated as ni
 ** NOTE ** -> element pd will be treated as ni
    4      -988.550346   -11.843385    0.012681  0.001817
 ** NOTE ** -> element pd will be treated as ni
 ** NOTE ** -> element pd will be treated as ni
 ** NOTE ** -> element pd will be treated as ni
 ** NOTE ** -> element pd will be treated as ni
    5      -988.552763   -13.360253    0.007663  0.001462
 ** NOTE ** -> element pd will be treated as ni
 ** NOTE ** -> element pd will be treated as ni
 ** NOTE ** -> element pd will be treated as ni
 ** NOTE ** -> element pd will be treated as ni
    6      -988.554653   -14.545796    0.008939  0.001485
 ** NOTE ** -> element pd will be treated as ni
 ** NOTE ** -> element pd will be treated as ni
 ** NOTE ** -> element pd will be treated as ni
 ** NOTE ** -> element pd will be treated as ni
 ** NOTE ** -> element pd will be treated as ni
 ** NOTE ** -> element pd will be treated as ni
    7      -988.555062   -14.803010    0.006774  0.001374
 ** NOTE ** -> element pd will be treated as ni
 ** NOTE ** -> element pd will be treated as ni
 ** NOTE ** -> element pd will be treated as ni
 ** NOTE ** -> element pd will be treated as ni
 ** NOTE ** -> element pd will be treated as ni
 ** NOTE ** -> element pd will be treated as ni
    8      -988.555325   -14.967914    0.005971  0.001132
 ** NOTE ** -> element pd will be treated as ni
 ** NOTE ** -> element pd will be treated as ni
 ** NOTE ** -> element pd will be treated as ni
 ** NOTE ** -> element pd will be treated as ni
    9      -988.555730   -15.221902    0.005317  0.001022
 ** NOTE ** -> element pd will be treated as ni
 ** NOTE ** -> element pd will be treated as ni
 ** NOTE ** -> element pd will be treated as ni
 ** NOTE ** -> element pd will be treated as ni
   10      -988.556137   -15.477008    0.005155  0.000990
 ** NOTE ** -> element pd will be treated as ni
 ** NOTE ** -> element pd will be treated as ni
 ** NOTE ** -> element pd will be treated as ni
 ** NOTE ** -> element pd will be treated as ni
   11      -988.556519   -15.717010    0.004600  0.000933
 ** NOTE ** -> element pd will be treated as ni
 ** NOTE ** -> element pd will be treated as ni
 ** NOTE ** -> element pd will be treated as ni
 ** NOTE ** -> element pd will be treated as ni
   12      -988.556890   -15.949620    0.004470  0.000901
 ** NOTE ** -> element pd will be treated as ni
 ** NOTE ** -> element pd will be treated as ni
 ** NOTE ** -> element pd will be treated as ni
 ** NOTE ** -> element pd will be treated as ni
   13      -988.557241   -16.170348    0.003981  0.000855
 ** NOTE ** -> element pd will be treated as ni
 ** NOTE ** -> element pd will be treated as ni
 ** NOTE ** -> element pd will be treated as ni
 ** NOTE ** -> element pd will be treated as ni
   14      -988.557581   -16.383471    0.003883  0.000823
 ** NOTE ** -> element pd will be treated as ni
 ** NOTE ** -> element pd will be treated as ni
 ** NOTE ** -> element pd will be treated as ni
 ** NOTE ** -> element pd will be treated as ni
   15      -988.557905   -16.586985    0.003427  0.000787
 ** NOTE ** -> element pd will be treated as ni
 ** NOTE ** -> element pd will be treated as ni
 ** NOTE ** -> element pd will be treated as ni
 ** NOTE ** -> element pd will be treated as ni
   16      -988.558217   -16.782609    0.003387  0.000755
 ** NOTE ** -> element pd will be treated as ni
 ** NOTE ** -> element pd will be treated as ni
 ** NOTE ** -> element pd will be treated as ni
 ** NOTE ** -> element pd will be treated as ni
   17      -988.558516   -16.970356    0.002931  0.000728
 ** NOTE ** -> element pd will be treated as ni
 ** NOTE ** -> element pd will be treated as ni
 ** NOTE ** -> element pd will be treated as ni
 ** NOTE ** -> element pd will be treated as ni
   18      -988.558803   -17.150095    0.002975  0.000698
 ** NOTE ** -> element pd will be treated as ni
 ** NOTE ** -> element pd will be treated as ni
 ** NOTE ** -> element pd will be treated as ni
 ** NOTE ** -> element pd will be treated as ni
   19      -988.559079   -17.323401    0.002547  0.000672
 ** NOTE ** -> element pd will be treated as ni
 ** NOTE ** -> element pd will be treated as ni
 ** NOTE ** -> element pd will be treated as ni
 ** NOTE ** -> element pd will be treated as ni
   20      -988.559344   -17.489797    0.002624  0.000646
 ** NOTE ** -> element pd will be treated as ni
 ** NOTE ** -> element pd will be treated as ni
 ** NOTE ** -> element pd will be treated as ni
 ** NOTE ** -> element pd will be treated as ni
   21      -988.559600   -17.650266    0.002365  0.000624
 ** NOTE ** -> element pd will be treated as ni
 ** NOTE ** -> element pd will be treated as ni
 ** NOTE ** -> element pd will be treated as ni
 ** NOTE ** -> element pd will be treated as ni
   22      -988.559845   -17.804340    0.002285  0.000601
 ** NOTE ** -> element pd will be treated as ni
 ** NOTE ** -> element pd will be treated as ni
 ** NOTE ** -> element pd will be treated as ni
 ** NOTE ** -> element pd will be treated as ni
   23      -988.560082   -17.953069    0.002196  0.000582
 ** NOTE ** -> element pd will be treated as ni
 ** NOTE ** -> element pd will be treated as ni
 ** NOTE ** -> element pd will be treated as ni
 ** NOTE ** -> element pd will be treated as ni
   24      -988.560309   -18.095517    0.002040  0.000563
 ** NOTE ** -> element pd will be treated as ni
 ** NOTE ** -> element pd will be treated as ni
 ** NOTE ** -> element pd will be treated as ni
 ** NOTE ** -> element pd will be treated as ni
   25      -988.560529   -18.233018    0.002036  0.000546
 ** NOTE ** -> element pd will be treated as ni
 ** NOTE ** -> element pd will be treated as ni
 ** NOTE ** -> element pd will be treated as ni
 ** NOTE ** -> element pd will be treated as ni
   26      -988.560739   -18.364956    0.001877  0.000529
 ** NOTE ** -> element pd will be treated as ni
 ** NOTE ** -> element pd will be treated as ni
 ** NOTE ** -> element pd will be treated as ni
 ** NOTE ** -> element pd will be treated as ni
   27      -988.560942   -18.492576    0.001879  0.000509
 ** NOTE ** -> element pd will be treated as ni
 ** NOTE ** -> element pd will be treated as ni
 ** NOTE ** -> element pd will be treated as ni
 ** NOTE ** -> element pd will be treated as ni
   28      -988.561139   -18.616061    0.001741  0.000489

                      ***********************HURRAY********************
                      ***            THE IRC HAS CONVERGED          ***
                      *************************************************


---------------------------------------------------------------
                       IRC PATH SUMMARY              
---------------------------------------------------------------
All gradients are in Eh/Bohr.

Step        E(Eh)      dE(kcal/mol)  max(|G|)   RMS(G) 
   1      -988.561139   -18.616061    0.001741  0.000489
   2      -988.560942   -18.492576    0.001879  0.000509
   3      -988.560739   -18.364956    0.001877  0.000529
   4      -988.560529   -18.233018    0.002036  0.000546
   5      -988.560309   -18.095517    0.002040  0.000563
   6      -988.560082   -17.953069    0.002196  0.000582
   7      -988.559845   -17.804340    0.002285  0.000601
   8      -988.559600   -17.650266    0.002365  0.000624
   9      -988.559344   -17.489797    0.002624  0.000646
  10      -988.559079   -17.323401    0.002547  0.000672
  11      -988.558803   -17.150095    0.002975  0.000698
  12      -988.558516   -16.970356    0.002931  0.000728
  13      -988.558217   -16.782609    0.003387  0.000755
  14      -988.557905   -16.586985    0.003427  0.000787
  15      -988.557581   -16.383471    0.003883  0.000823
  16      -988.557241   -16.170348    0.003981  0.000855
  17      -988.556890   -15.949620    0.004470  0.000901
  18      -988.556519   -15.717010    0.004600  0.000933
  19      -988.556137   -15.477008    0.005155  0.000990
  20      -988.555730   -15.221902    0.005317  0.001022
  21      -988.555325   -14.967914    0.005971  0.001132
  22      -988.555062   -14.803010    0.006774  0.001374
  23      -988.554653   -14.545796    0.008939  0.001485
  24      -988.552763   -13.360253    0.007663  0.001462
  25      -988.550346   -11.843385    0.012681  0.001817
  26      -988.547225   -9.885035    0.014786  0.002333
  27      -988.543273   -7.404944    0.023107  0.002955
  28      -988.538530   -4.428710    0.027068  0.003356
  29      -988.534125   -1.664540    0.018210  0.002767
  30      -988.531472    0.000000    0.000081  0.000035 <= TS
  31      -988.532280   -0.506789    0.010490  0.002100
  32      -988.532733   -0.791217    0.005714  0.001392
  33      -988.532962   -0.934826    0.004891  0.001034
  34      -988.533271   -1.128699    0.004368  0.000833
  35      -988.533586   -1.326186    0.003884  0.000787
  36      -988.533885   -1.514241    0.003850  0.000755
  37      -988.534166   -1.690199    0.003185  0.000712
  38      -988.534435   -1.858933    0.002936  0.000679
  39      -988.534688   -2.017917    0.002318  0.000647
  40      -988.534929   -2.169403    0.002258  0.000618
  41      -988.535158   -2.312538    0.002201  0.000588
  42      -988.535376   -2.449892    0.002099  0.000563
  43      -988.535584   -2.580094    0.001962  0.000541
  44      -988.535782   -2.704619    0.001982  0.000520
  45      -988.535970   -2.822576    0.001870  0.000510
  46      -988.536148   -2.933890    0.001836  0.000494

Timings for individual modules:

Sum of individual times         ...     8639.568 sec (= 143.993 min)
GTO integral calculation        ...      212.969 sec (=   3.549 min)   2.5 %
SCF iterations                  ...     7150.903 sec (= 119.182 min)  82.8 %
SCF Gradient evaluation         ...     1275.695 sec (=  21.262 min)  14.8 %
================================================================================

cite the ECPs for Pd [Def2-ECP] as follows:
Ce-Yb(ecp-28): M. Dolg, H. Stoll, H.Preuss, J. Chem. Phys., 1989, 90, 1730-1734.
Y-Cd(ecp-28), Hf-Hg(ecp-46): D. Andrae,U. Haeussermann, M. Dolg, H. Stoll, H. Preuss, Theor. Chim. Acta, 1990, 77, 123-141.
In-Sb(ecp-28), Tl-Bi(ecp-46): B. Metz, H. Stoll, M. Dolg, J. Chem. Phys., 2000, 113, 2563-2569.
Te-Xe(ecp-28), Po-Rn(ecp-46): K. A. Peterson, D. Figgen, E. Goll, H. Stoll, M. Dolg, J. Chem. Phys., 2003, 119, 11113-11123.
Rb(ecp-28), Cs(ecp-46): T. Leininger, A. Nicklass, W. Kuechle, H. Stoll, M. Dolg, A. Bergner, Chem. Phys. Lett., 1996, 255, 274-280.
Sr(ecp-28), Ba(ecp-46): M. Kaupp, P. V. Schleyer, H. Stoll and H. Preuss, J. Chem. Phys., 1991, 94, 1360-1366.
La(ecp-46): M. Dolg, H. Stoll, A. Savin, H. Preuss, Theor. Chim. Acta, 1989, 75, 173-194.
Lu(ecp-28): X. Cao, M. Dolg, J. Chem. Phys., 2001, 115, 7348-7355.

ECP parameters for Pd [Def2-ECP] have been obtained from:
TURBOMOLE (7.0.2)

----- Orbital basis set information -----
Your calculation utilizes the basis: def2-SVP
   F. Weigend and R. Ahlrichs, Phys. Chem. Chem. Phys. 7, 3297 (2005).

                             ****ORCA TERMINATED NORMALLY****
TOTAL RUN TIME: 0 days 3 hours 51 minutes 30 seconds 152 msec
