
                                 *****************
                                 * O   R   C   A *
                                 *****************

                                            #,                                       
                                            ###                                      
                                            ####                                     
                                            #####                                    
                                            ######                                   
                                           ########,                                 
                                     ,,################,,,,,                         
                               ,,#################################,,                 
                          ,,##########################################,,             
                       ,#########################################, ''#####,          
                    ,#############################################,,   '####,        
                  ,##################################################,,,,####,       
                ,###########''''           ''''###############################       
              ,#####''   ,,,,##########,,,,          '''####'''          '####       
            ,##' ,,,,###########################,,,                        '##       
           ' ,,###''''                  '''############,,,                           
         ,,##''                                '''############,,,,        ,,,,,,###''
      ,#''                                            '''#######################'''  
     '                                                          ''''####''''         
             ,#######,   #######,   ,#######,      ##                                
            ,#'     '#,  ##    ##  ,#'     '#,    #''#        ######   ,####,        
            ##       ##  ##   ,#'  ##            #'  '#       #        #'  '#        
            ##       ##  #######   ##           ,######,      #####,   #    #        
            '#,     ,#'  ##    ##  '#,     ,#' ,#      #,         ##   #,  ,#        
             '#######'   ##     ##  '#######'  #'      '#     #####' # '####'        



                  #######################################################
                  #                        -***-                        #
                  #          Department of theory and spectroscopy      #
                  #    Directorship and core code : Frank Neese         #
                  #        Max Planck Institute fuer Kohlenforschung    #
                  #                Kaiser Wilhelm Platz 1               #
                  #                 D-45470 Muelheim/Ruhr               #
                  #                      Germany                        #
                  #                                                     #
                  #                  All rights reserved                #
                  #                        -***-                        #
                  #######################################################


                         Program Version 5.0.4 -  RELEASE  -


 With contributions from (in alphabetic order):
   Daniel Aravena         : Magnetic Suceptibility
   Michael Atanasov       : Ab Initio Ligand Field Theory (pilot matlab implementation)
   Alexander A. Auer      : GIAO ZORA, VPT2 properties, NMR spectrum
   Ute Becker             : Parallelization
   Giovanni Bistoni       : ED, misc. LED, open-shell LED, HFLD
   Martin Brehm           : Molecular dynamics
   Dmytro Bykov           : SCF Hessian
   Vijay G. Chilkuri      : MRCI spin determinant printing, contributions to CSF-ICE
   Dipayan Datta          : RHF DLPNO-CCSD density
   Achintya Kumar Dutta   : EOM-CC, STEOM-CC
   Dmitry Ganyushin       : Spin-Orbit,Spin-Spin,Magnetic field MRCI
   Miquel Garcia          : C-PCM and meta-GGA Hessian, CC/C-PCM, Gaussian charge scheme
   Yang Guo               : DLPNO-NEVPT2, F12-NEVPT2, CIM, IAO-localization
   Andreas Hansen         : Spin unrestricted coupled pair/coupled cluster methods
   Benjamin Helmich-Paris : MC-RPA, TRAH-SCF, COSX integrals
   Lee Huntington         : MR-EOM, pCC
   Robert Izsak           : Overlap fitted RIJCOSX, COSX-SCS-MP3, EOM
   Marcus Kettner         : VPT2
   Christian Kollmar      : KDIIS, OOCD, Brueckner-CCSD(T), CCSD density, CASPT2, CASPT2-K
   Simone Kossmann        : Meta GGA functionals, TD-DFT gradient, OOMP2, MP2 Hessian
   Martin Krupicka        : Initial AUTO-CI
   Lucas Lang             : DCDCAS
   Marvin Lechner         : AUTO-CI (C++ implementation), FIC-MRCC
   Dagmar Lenk            : GEPOL surface, SMD
   Dimitrios Liakos       : Extrapolation schemes; Compound Job, initial MDCI parallelization
   Dimitrios Manganas     : Further ROCIS development; embedding schemes
   Dimitrios Pantazis     : SARC Basis sets
   Anastasios Papadopoulos: AUTO-CI, single reference methods and gradients
   Taras Petrenko         : DFT Hessian,TD-DFT gradient, ASA, ECA, R-Raman, ABS, FL, XAS/XES, NRVS
   Peter Pinski           : DLPNO-MP2, DLPNO-MP2 Gradient
   Christoph Reimann      : Effective Core Potentials
   Marius Retegan         : Local ZFS, SOC
   Christoph Riplinger    : Optimizer, TS searches, QM/MM, DLPNO-CCSD(T), (RO)-DLPNO pert. Triples
   Tobias Risthaus        : Range-separated hybrids, TD-DFT gradient, RPA, STAB
   Michael Roemelt        : Original ROCIS implementation
   Masaaki Saitow         : Open-shell DLPNO-CCSD energy and density
   Barbara Sandhoefer     : DKH picture change effects
   Avijit Sen             : IP-ROCIS
   Kantharuban Sivalingam : CASSCF convergence, NEVPT2, FIC-MRCI
   Bernardo de Souza      : ESD, SOC TD-DFT
   Georgi Stoychev        : AutoAux, RI-MP2 NMR, DLPNO-MP2 response
   Willem Van den Heuvel  : Paramagnetic NMR
   Boris Wezisla          : Elementary symmetry handling
   Frank Wennmohs         : Technical directorship


 We gratefully acknowledge several colleagues who have allowed us to
 interface, adapt or use parts of their codes:
   Stefan Grimme, W. Hujo, H. Kruse, P. Pracht,  : VdW corrections, initial TS optimization,
                  C. Bannwarth, S. Ehlert          DFT functionals, gCP, sTDA/sTD-DF
   Ed Valeev, F. Pavosevic, A. Kumar             : LibInt (2-el integral package), F12 methods
   Garnet Chan, S. Sharma, J. Yang, R. Olivares  : DMRG
   Ulf Ekstrom                                   : XCFun DFT Library
   Mihaly Kallay                                 : mrcc  (arbitrary order and MRCC methods)
   Jiri Pittner, Ondrej Demel                    : Mk-CCSD
   Frank Weinhold                                : gennbo (NPA and NBO analysis)
   Christopher J. Cramer and Donald G. Truhlar   : smd solvation model
   Lars Goerigk                                  : TD-DFT with DH, B97 family of functionals
   V. Asgeirsson, H. Jonsson                     : NEB implementation
   FAccTs GmbH                                   : IRC, NEB, NEB-TS, DLPNO-Multilevel, CI-OPT
                                                   MM, QMMM, 2- and 3-layer-ONIOM, Crystal-QMMM,
                                                   LR-CPCM, SF, NACMEs, symmetry and pop. for TD-DFT,
                                                   nearIR, NL-DFT gradient (VV10), updates on ESD,
                                                   ML-optimized integration grids
   S Lehtola, MJT Oliveira, MAL Marques          : LibXC Library
   Liviu Ungur et al                             : ANISO software


 Your calculation uses the libint2 library for the computation of 2-el integrals
 For citations please refer to: http://libint.valeyev.net

 Your ORCA version has been built with support for libXC version: 5.1.0
 For citations please refer to: https://tddft.org/programs/libxc/

 This ORCA versions uses:
   CBLAS   interface :  Fast vector & matrix operations
   LAPACKE interface :  Fast linear algebra routines
   SCALAPACK package :  Parallel linear algebra routines
   Shared memory     :  Shared parallel matrices
   BLAS/LAPACK       :  OpenBLAS 0.3.15  USE64BITINT DYNAMIC_ARCH NO_AFFINITY SkylakeX SINGLE_THREADED
        Core in use  :  SkylakeX
   Copyright (c) 2011-2014, The OpenBLAS Project




***************************************
The coordinates will be read from file: IEIP_ts_guess.xyz
***************************************




################################################################################


                                COMPOUND JOB MainJOB 
Basename: reaction-3-ieip_optts_Compound_0

################################################################################

================================================================================
                                       INPUT FILE
================================================================================
NAME = reaction-3-ieip_optts_Compound_0.inp
|  1> %pal nprocs 8 end 
|  2>   
|  3>  *xyzfile -1 1 IEIP_ts_guess.xyz 
|  4>   
|  5> 
|  6>                          ****END OF INPUT****
================================================================================


***************************************
The coordinates will be read from file: IEIP_ts_guess.xyz
***************************************


================================================================================

cite the ECPs for Pd [Def2-ECP] as follows:
Ce-Yb(ecp-28): M. Dolg, H. Stoll, H.Preuss, J. Chem. Phys., 1989, 90, 1730-1734.
Y-Cd(ecp-28), Hf-Hg(ecp-46): D. Andrae,U. Haeussermann, M. Dolg, H. Stoll, H. Preuss, Theor. Chim. Acta, 1990, 77, 123-141.
In-Sb(ecp-28), Tl-Bi(ecp-46): B. Metz, H. Stoll, M. Dolg, J. Chem. Phys., 2000, 113, 2563-2569.
Te-Xe(ecp-28), Po-Rn(ecp-46): K. A. Peterson, D. Figgen, E. Goll, H. Stoll, M. Dolg, J. Chem. Phys., 2003, 119, 11113-11123.
Rb(ecp-28), Cs(ecp-46): T. Leininger, A. Nicklass, W. Kuechle, H. Stoll, M. Dolg, A. Bergner, Chem. Phys. Lett., 1996, 255, 274-280.
Sr(ecp-28), Ba(ecp-46): M. Kaupp, P. V. Schleyer, H. Stoll and H. Preuss, J. Chem. Phys., 1991, 94, 1360-1366.
La(ecp-46): M. Dolg, H. Stoll, A. Savin, H. Preuss, Theor. Chim. Acta, 1989, 75, 173-194.
Lu(ecp-28): X. Cao, M. Dolg, J. Chem. Phys., 2001, 115, 7348-7355.

ECP parameters for Pd [Def2-ECP] have been obtained from:
TURBOMOLE (7.0.2)

----- Orbital basis set information -----
Your calculation utilizes the basis: def2-SVP
   F. Weigend and R. Ahlrichs, Phys. Chem. Chem. Phys. 7, 3297 (2005).



################################################################################


                                COMPOUND JOB  1 
Basename: reaction-3-ieip_optts_Compound_1
NOTE: please remember that MaxCore and PAL settings will be ignored.

################################################################################

================================================================================
                                       INPUT FILE
================================================================================
NAME = reaction-3-ieip_optts_Compound_1.inp
|  1>   
|  2>    
|  3>   ! PBEh-3c OptTS Freq pal8 
|  4>    
|  5>   %geom 
|  6>    calc_hess true 
|  7>    recalc_hess 20 
|  8>    maxiter 600 
|  9>   end  
| 10>    
| 11> 
| 12>                          ****END OF INPUT****
================================================================================
Your calculation utilizes the geometrical counterpoise correction gCP
Please cite in your paper:
H.Kruse, S. Grimme J.Chem.Phys., 136, (2012), 154101 
   

Your calculation utilizes the atom-pairwise dispersion correction
with the Becke-Johnson damping scheme (D3BJ)
Cite in your paper:
S.Grimme, S.Ehrlich, L.Goerigk, J Comput Chem, (2011), 32, 1456–1465 
S.Grimme, J.Antony, S.Ehrlich and H.Krieg, J.Chem.Phys., 132, (2010), 154104 
   

Your calculation employs the composite approach PBEh-3c.
Please cite in your paper:
S. Grimme, J. G. Brandenburg, C. Bannwarth, A. Hansen J.Chem.Phys., 143, (2015), 054107 
   

================================================================================

cite the ECPs for Pd [Def2-ECP] as follows:
Ce-Yb(ecp-28): M. Dolg, H. Stoll, H.Preuss, J. Chem. Phys., 1989, 90, 1730-1734.
Y-Cd(ecp-28), Hf-Hg(ecp-46): D. Andrae,U. Haeussermann, M. Dolg, H. Stoll, H. Preuss, Theor. Chim. Acta, 1990, 77, 123-141.
In-Sb(ecp-28), Tl-Bi(ecp-46): B. Metz, H. Stoll, M. Dolg, J. Chem. Phys., 2000, 113, 2563-2569.
Te-Xe(ecp-28), Po-Rn(ecp-46): K. A. Peterson, D. Figgen, E. Goll, H. Stoll, M. Dolg, J. Chem. Phys., 2003, 119, 11113-11123.
Rb(ecp-28), Cs(ecp-46): T. Leininger, A. Nicklass, W. Kuechle, H. Stoll, M. Dolg, A. Bergner, Chem. Phys. Lett., 1996, 255, 274-280.
Sr(ecp-28), Ba(ecp-46): M. Kaupp, P. V. Schleyer, H. Stoll and H. Preuss, J. Chem. Phys., 1991, 94, 1360-1366.
La(ecp-46): M. Dolg, H. Stoll, A. Savin, H. Preuss, Theor. Chim. Acta, 1989, 75, 173-194.
Lu(ecp-28): X. Cao, M. Dolg, J. Chem. Phys., 2001, 115, 7348-7355.

ECP parameters for Pd [Def2-ECP] have been obtained from:
TURBOMOLE (7.0.2)

----- Orbital basis set information -----
Your calculation utilizes the basis: def2-mSVP

----- AuxJ basis set information -----
Your calculation utilizes the auxiliary basis: def2/J
   F. Weigend, Phys. Chem. Chem. Phys. 8, 1057 (2006).

================================================================================
                                        WARNINGS
                       Please study these warnings very carefully!
================================================================================


WARNING: Geometry Optimization
  ===> : Switching off AutoStart
         For restart on a previous wavefunction, please use MOREAD

INFO   : the flag for use of the SHARK integral package has been found!


                       *****************************
                       * Geometry Optimization Run *
                       *****************************

Geometry optimization settings:
Update method            Update   .... Bofill
Choice of coordinates    CoordSys .... Z-matrix Internals
Initial Hessian          InHess   .... Almoef's Model

Convergence Tolerances:
Energy Change            TolE     ....  5.0000e-06 Eh
Max. Gradient            TolMAXG  ....  3.0000e-04 Eh/bohr
RMS Gradient             TolRMSG  ....  1.0000e-04 Eh/bohr
Max. Displacement        TolMAXD  ....  4.0000e-03 bohr
RMS Displacement         TolRMSD  ....  2.0000e-03 bohr
Strict Convergence                ....  False
------------------------------------------------------------------------------
                        ORCA OPTIMIZATION COORDINATE SETUP
------------------------------------------------------------------------------

The optimization will be done in new redundant internal coordinates
Making redundant internal coordinates   ...  (new redundants) done
Following TS mode number                ...     0
Evaluating the initial hessian          ...  (Is done on the fly) done
Evaluating the coordinates              ...  done
Calculating the B-matrix                .... done
Calculating the G-matrix                .... done
Diagonalizing the G-matrix              .... done
Small eigenvalue found = 1.130e-02
Small eigenvalue found = 1.857e-02
Small eigenvalue found = 2.333e-02
The first mode is                       ....  119
The number of degrees of freedom        ....  108

    -----------------------------------------------------------------
                    Redundant Internal Coordinates


    -----------------------------------------------------------------
         Definition                    Initial Value    d2E/dq (diagonal element)
    -----------------------------------------------------------------
      1. B(C   1,C   0)                  1.4193         0.000000   
      2. B(C   2,C   0)                  1.4138         0.000000   
      3. B(C   3,C   2)                  1.4033         0.000000   
      4. B(C   4,C   3)                  1.3833         0.000000   
      5. B(C   5,C   4)                  1.3744         0.000000   
      6. B(C   5,C   1)                  1.4023         0.000000   
      7. B(H   7,C   2)                  1.0818         0.000000   
      8. B(H   8,C   5)                  1.0860         0.000000   
      9. B(H   9,C   3)                  1.0855         0.000000   
     10. B(H  10,C   4)                  1.0870         0.000000   
     11. B(C  11,C   1)                  1.5025         0.000000   
     12. B(C  12,C  11)                  1.5352         0.000000   
     13. B(H  13,C  11)                  1.0907         0.000000   
     14. B(H  14,C  11)                  1.0908         0.000000   
     15. B(C  15,C  12)                  1.4883         0.000000   
     16. B(H  16,C  12)                  1.0914         0.000000   
     17. B(H  17,C  12)                  1.0923         0.000000   
     18. B(C  18,C  15)                  1.3972         0.000000   
     19. B(C  19,C  18)                  1.4037         0.000000   
     20. B(C  20,C  19)                  1.3999         0.000000   
     21. B(C  21,C  15)                  1.3921         0.000000   
     22. B(C  22,C  21)                  1.3825         0.000000   
     23. B(C  22,C  20)                  1.3860         0.000000   
     24. B(H  23,C  19)                  1.0835         0.000000   
     25. B(H  24,C  20)                  1.0852         0.000000   
     26. B(H  25,C  21)                  1.0860         0.000000   
     27. B(H  26,C  22)                  1.0851         0.000000   
     28. B(Pd 27,C  18)                  2.0923         0.000000   
     29. B(Pd 27,H   6)                  1.7611         0.000000   
     30. B(Pd 27,C   0)                  2.4965         0.000000   
     31. B(Br 28,Pd 27)                  2.5676         0.000000   
     32. B(P  29,Pd 27)                  2.2361         0.000000   
     33. B(H  30,P  29)                  1.3994         0.000000   
     34. B(O  32,C  31)                  1.2255         0.000000   
     35. B(O  33,C  31)                  1.2742         0.000000   
     36. B(O  33,Pd 27)                  2.4304         0.000000   
     37. B(O  34,C  31)                  1.3668         0.000000   
     38. B(H  35,P  29)                  1.4075         0.000000   
     39. B(H  36,P  29)                  1.4017         0.000000   
     40. B(H  37,O  34)                  0.9612         0.000000   
     41. A(C   2,C   0,Pd 27)          129.6161         0.000000   
     42. A(C   1,C   0,Pd 27)          113.2227         0.000000   
     43. A(C   1,C   0,C   2)          113.4005         0.000000   
     44. A(C   5,C   1,C  11)          110.7860         0.000000   
     45. A(C   0,C   1,C   5)          121.2721         0.000000   
     46. A(C   0,C   1,C  11)          127.9337         0.000000   
     47. A(C   0,C   2,H   7)          120.6781         0.000000   
     48. A(C   0,C   2,C   3)          123.6575         0.000000   
     49. A(C   3,C   2,H   7)          115.6593         0.000000   
     50. A(C   4,C   3,H   9)          118.3466         0.000000   
     51. A(C   2,C   3,C   4)          120.6890         0.000000   
     52. A(C   2,C   3,H   9)          120.9617         0.000000   
     53. A(C   5,C   4,H  10)          120.0745         0.000000   
     54. A(C   3,C   4,C   5)          116.6770         0.000000   
     55. A(C   3,C   4,H  10)          123.2361         0.000000   
     56. A(C   1,C   5,C   4)          123.2221         0.000000   
     57. A(C   4,C   5,H   8)          118.9676         0.000000   
     58. A(C   1,C   5,H   8)          117.8060         0.000000   
     59. A(H  13,C  11,H  14)          105.5453         0.000000   
     60. A(C  12,C  11,H  14)          108.9903         0.000000   
     61. A(C   1,C  11,H  14)          108.0771         0.000000   
     62. A(C  12,C  11,H  13)          107.3051         0.000000   
     63. A(C   1,C  11,H  13)          107.0613         0.000000   
     64. A(C   1,C  11,C  12)          119.0613         0.000000   
     65. A(C  15,C  12,H  17)          110.3570         0.000000   
     66. A(H  16,C  12,H  17)          106.3914         0.000000   
     67. A(C  11,C  12,H  17)          109.9185         0.000000   
     68. A(C  15,C  12,H  16)          112.3778         0.000000   
     69. A(C  11,C  12,H  16)          111.7332         0.000000   
     70. A(C  11,C  12,C  15)          106.1068         0.000000   
     71. A(C  12,C  15,C  18)          119.0675         0.000000   
     72. A(C  18,C  15,C  21)          122.1753         0.000000   
     73. A(C  12,C  15,C  21)          117.6901         0.000000   
     74. A(C  15,C  18,C  19)          116.0979         0.000000   
     75. A(C  19,C  18,Pd 27)          128.2549         0.000000   
     76. A(C  15,C  18,Pd 27)          115.4729         0.000000   
     77. A(C  20,C  19,H  23)          117.1604         0.000000   
     78. A(C  18,C  19,H  23)          121.2866         0.000000   
     79. A(C  18,C  19,C  20)          121.5521         0.000000   
     80. A(C  22,C  20,H  24)          118.8935         0.000000   
     81. A(C  19,C  20,H  24)          120.1719         0.000000   
     82. A(C  19,C  20,C  22)          120.9333         0.000000   
     83. A(C  22,C  21,H  25)          120.2728         0.000000   
     84. A(C  15,C  21,H  25)          118.7495         0.000000   
     85. A(C  15,C  21,C  22)          120.9374         0.000000   
     86. A(C  21,C  22,H  26)          120.1966         0.000000   
     87. A(C  20,C  22,H  26)          121.6312         0.000000   
     88. A(C  20,C  22,C  21)          118.1720         0.000000   
     89. A(C  18,Pd 27,O  33)          105.1220         0.000000   
     90. A(H   6,Pd 27,O  33)           41.9338         0.000000   
     91. A(C   0,Pd 27,O  33)           90.9926         0.000000   
     92. A(Br 28,Pd 27,P  29)           79.9190         0.000000   
     93. A(C  18,Pd 27,P  29)           85.0941         0.000000   
     94. A(H   6,Pd 27,P  29)          153.8270         0.000000   
     95. A(C   0,Pd 27,P  29)          150.3689         0.000000   
     96. A(C  18,Pd 27,Br 28)          164.9951         0.000000   
     97. A(H   6,Pd 27,Br 28)           84.7856         0.000000   
     98. A(C   0,Pd 27,Br 28)           89.2513         0.000000   
     99. A(H   6,Pd 27,C  18)          108.8466         0.000000   
    100. A(C   0,Pd 27,C  18)          104.3278         0.000000   
    101. A(C   0,Pd 27,H   6)           49.1588         0.000000   
    102. A(Br 28,Pd 27,O  33)           80.5855         0.000000   
    103. A(P  29,Pd 27,O  33)          113.9584         0.000000   
    104. A(Pd 27,P  29,H  30)          111.8071         0.000000   
    105. A(H  35,P  29,H  36)           99.7188         0.000000   
    106. A(H  30,P  29,H  36)          100.1625         0.000000   
    107. A(Pd 27,P  29,H  36)          118.7114         0.000000   
    108. A(H  30,P  29,H  35)           99.4210         0.000000   
    109. A(Pd 27,P  29,H  35)          123.1565         0.000000   
    110. A(O  33,C  31,O  34)          112.8769         0.000000   
    111. A(O  32,C  31,O  34)          118.2006         0.000000   
    112. A(O  32,C  31,O  33)          128.9007         0.000000   
    113. A(Pd 27,O  33,C  31)          116.4861         0.000000   
    114. A(C  31,O  34,H  37)          106.3343         0.000000   
    115. D(C  11,C   1,C   0,Pd 27)     10.6690         0.000000   
    116. D(C   5,C   1,C   0,Pd 27)   -170.4752         0.000000   
    117. D(C  11,C   1,C   0,C   2)    171.0115         0.000000   
    118. D(C   5,C   1,C   0,C   2)    -10.1327         0.000000   
    119. D(H   7,C   2,C   0,C   1)   -169.0712         0.000000   
    120. D(H   7,C   2,C   0,Pd 27)    -12.7312         0.000000   
    121. D(C   3,C   2,C   0,Pd 27)    166.4141         0.000000   
    122. D(C   3,C   2,C   0,C   1)     10.0741         0.000000   
    123. D(C   4,C   3,C   2,C   0)     -2.2995         0.000000   
    124. D(C   4,C   3,C   2,H   7)    176.8850         0.000000   
    125. D(H   9,C   3,C   2,H   7)     -3.7132         0.000000   
    126. D(H   9,C   3,C   2,C   0)    177.1022         0.000000   
    127. D(H  10,C   4,C   3,C   2)    175.4325         0.000000   
    128. D(C   5,C   4,C   3,H   9)    174.7353         0.000000   
    129. D(C   5,C   4,C   3,C   2)     -5.8476         0.000000   
    130. D(H  10,C   4,C   3,H   9)     -3.9845         0.000000   
    131. D(H   8,C   5,C   4,C   3)   -175.1011         0.000000   
    132. D(H   8,C   5,C   4,H  10)      3.6616         0.000000   
    133. D(H   8,C   5,C   1,C   0)   -176.5183         0.000000   
    134. D(C   1,C   5,C   4,C   3)      5.6733         0.000000   
    135. D(C   4,C   5,C   1,C   0)      2.7158         0.000000   
    136. D(C   4,C   5,C   1,C  11)   -178.2496         0.000000   
    137. D(H   8,C   5,C   1,C  11)      2.5164         0.000000   
    138. D(C   1,C   5,C   4,H  10)   -175.5640         0.000000   
    139. D(H  14,C  11,C   1,C   5)    -99.7621         0.000000   
    140. D(H  14,C  11,C   1,C   0)     79.1918         0.000000   
    141. D(H  13,C  11,C   1,C   5)     13.5081         0.000000   
    142. D(H  13,C  11,C   1,C   0)   -167.5380         0.000000   
    143. D(C  12,C  11,C   1,C   5)    135.2786         0.000000   
    144. D(C  12,C  11,C   1,C   0)    -45.7675         0.000000   
    145. D(C  15,C  12,C  11,C   1)    112.9749         0.000000   
    146. D(H  17,C  12,C  11,H  14)    107.7816         0.000000   
    147. D(H  17,C  12,C  11,H  13)     -6.0522         0.000000   
    148. D(H  17,C  12,C  11,C   1)   -127.7006         0.000000   
    149. D(H  16,C  12,C  11,H  14)   -134.3421         0.000000   
    150. D(H  16,C  12,C  11,H  13)    111.8241         0.000000   
    151. D(H  16,C  12,C  11,C   1)     -9.8243         0.000000   
    152. D(C  15,C  12,C  11,H  14)    -11.5430         0.000000   
    153. D(C  15,C  12,C  11,H  13)   -125.3767         0.000000   
    154. D(C  21,C  15,C  12,H  17)    -29.9782         0.000000   
    155. D(C  21,C  15,C  12,H  16)   -148.5509         0.000000   
    156. D(C  18,C  15,C  12,C  11)    -79.3918         0.000000   
    157. D(C  18,C  15,C  12,H  17)    161.5716         0.000000   
    158. D(C  21,C  15,C  12,C  11)     89.0584         0.000000   
    159. D(C  18,C  15,C  12,H  16)     42.9989         0.000000   
    160. D(Pd 27,C  18,C  15,C  21)    179.5841         0.000000   
    161. D(Pd 27,C  18,C  15,C  12)    -12.5065         0.000000   
    162. D(C  19,C  18,C  15,C  21)      3.9810         0.000000   
    163. D(C  19,C  18,C  15,C  12)    171.8903         0.000000   
    164. D(H  23,C  19,C  18,Pd 27)      0.8647         0.000000   
    165. D(H  23,C  19,C  18,C  15)    175.8083         0.000000   
    166. D(C  20,C  19,C  18,Pd 27)   -178.7800         0.000000   
    167. D(C  20,C  19,C  18,C  15)     -3.8364         0.000000   
    168. D(H  24,C  20,C  19,H  23)      1.2255         0.000000   
    169. D(H  24,C  20,C  19,C  18)   -179.1158         0.000000   
    170. D(C  22,C  20,C  19,H  23)   -178.3674         0.000000   
    171. D(C  22,C  20,C  19,C  18)      1.2913         0.000000   
    172. D(H  25,C  21,C  15,C  18)    176.1417         0.000000   
    173. D(H  25,C  21,C  15,C  12)      8.0740         0.000000   
    174. D(C  22,C  21,C  15,C  18)     -1.5533         0.000000   
    175. D(C  22,C  21,C  15,C  12)   -169.6210         0.000000   
    176. D(C  21,C  22,C  20,H  24)   -178.2834         0.000000   
    177. D(C  21,C  22,C  20,C  19)      1.3145         0.000000   
    178. D(H  26,C  22,C  21,H  25)      0.9616         0.000000   
    179. D(H  26,C  22,C  21,C  15)    178.6216         0.000000   
    180. D(C  20,C  22,C  21,H  25)   -178.8577         0.000000   
    181. D(C  20,C  22,C  21,C  15)     -1.1977         0.000000   
    182. D(H  26,C  22,C  20,H  24)      1.9000         0.000000   
    183. D(H  26,C  22,C  20,C  19)   -178.5020         0.000000   
    184. D(O  33,Pd 27,C  18,C  19)    -31.7116         0.000000   
    185. D(O  33,Pd 27,C  18,C  15)    153.3182         0.000000   
    186. D(P  29,Pd 27,C  18,C  15)    -93.1668         0.000000   
    187. D(Br 28,Pd 27,C  18,C  19)     79.0027         0.000000   
    188. D(Br 28,Pd 27,C  18,C  15)    -95.9675         0.000000   
    189. D(H   6,Pd 27,C  18,C  19)    -75.4904         0.000000   
    190. D(H   6,Pd 27,C  18,C  15)    109.5394         0.000000   
    191. D(C   0,Pd 27,C  18,C  19)   -126.7338         0.000000   
    192. D(C   0,Pd 27,C  18,C  15)     58.2960         0.000000   
    193. D(O  33,Pd 27,C   0,C   2)     66.0442         0.000000   
    194. D(O  33,Pd 27,C   0,C   1)   -137.5823         0.000000   
    195. D(P  29,Pd 27,C   0,C   2)    -82.3754         0.000000   
    196. D(P  29,Pd 27,C   0,C   1)     73.9981         0.000000   
    197. D(Br 28,Pd 27,C   0,C   2)    -14.5260         0.000000   
    198. D(Br 28,Pd 27,C   0,C   1)    141.8476         0.000000   
    199. D(C  18,Pd 27,C   0,C   2)    171.9296         0.000000   
    200. D(P  29,Pd 27,C  18,C  19)     81.8034         0.000000   
    201. D(C  18,Pd 27,C   0,C   1)    -31.6968         0.000000   
    202. D(H   6,Pd 27,C   0,C   2)     69.2253         0.000000   
    203. D(H   6,Pd 27,C   0,C   1)   -134.4012         0.000000   
    204. D(H  36,P  29,Pd 27,O  33)    -17.7096         0.000000   
    205. D(H  36,P  29,Pd 27,C  18)   -122.0912         0.000000   
    206. D(H  36,P  29,Pd 27,H   6)      1.9935         0.000000   
    207. D(H  36,P  29,Pd 27,C   0)    127.3318         0.000000   
    208. D(H  35,P  29,Pd 27,O  33)    108.2880         0.000000   
    209. D(H  35,P  29,Pd 27,Br 28)   -176.8298         0.000000   
    210. D(H  35,P  29,Pd 27,C  18)      3.9064         0.000000   
    211. D(H  35,P  29,Pd 27,H   6)    127.9911         0.000000   
    212. D(H  35,P  29,Pd 27,C   0)   -106.6705         0.000000   
    213. D(H  30,P  29,Pd 27,O  33)   -133.5485         0.000000   
    214. D(H  30,P  29,Pd 27,Br 28)    -58.6663         0.000000   
    215. D(H  30,P  29,Pd 27,C  18)    122.0699         0.000000   
    216. D(H  36,P  29,Pd 27,Br 28)     57.1726         0.000000   
    217. D(H  30,P  29,Pd 27,H   6)   -113.8454         0.000000   
    218. D(H  30,P  29,Pd 27,C   0)     11.4929         0.000000   
    219. D(Pd 27,O  33,C  31,O  32)     69.3544         0.000000   
    220. D(C  31,O  33,Pd 27,P  29)    -67.3401         0.000000   
    221. D(C  31,O  33,Pd 27,Br 28)   -141.8045         0.000000   
    222. D(C  31,O  33,Pd 27,C  18)     23.9858         0.000000   
    223. D(C  31,O  33,Pd 27,H   6)    125.5174         0.000000   
    224. D(Pd 27,O  33,C  31,O  34)   -112.3958         0.000000   
    225. D(C  31,O  33,Pd 27,C   0)    129.1191         0.000000   
    226. D(H  37,O  34,C  31,O  33)    177.1419         0.000000   
    227. D(H  37,O  34,C  31,O  32)     -4.4035         0.000000   
    -----------------------------------------------------------------

Number of atoms                         .... 38
Number of degrees of freedom            .... 227

         *************************************************************
         *                GEOMETRY OPTIMIZATION CYCLE   1            *
         *************************************************************
---------------------------------
CARTESIAN COORDINATES (ANGSTROEM)
---------------------------------
  C     -2.070630   -0.074750    0.256620
  C     -1.750380    0.958620    1.175290
  C     -3.446610   -0.398850    0.233360
  C     -4.435510    0.360580    0.877250
  C     -4.095470    1.472000    1.627270
  C     -2.753430    1.709540    1.804870
  H     -1.377820   -0.746510   -1.371980
  H     -3.797420   -1.279840   -0.287250
  H     -2.444770    2.524300    2.453210
  H     -5.485220    0.097700    0.792190
  H     -4.830240    2.130510    2.083350
  C     -0.387470    1.428360    1.598790
  C      0.679510    0.387230    1.965550
  H     -0.526570    2.070840    2.469170
  H      0.005090    2.078150    0.815540
  C      1.730490    0.485840    0.916340
  H      0.256930   -0.616470    2.037330
  H      1.100200    0.615510    2.947420
  C      1.515510   -0.129110   -0.319740
  C      2.460400    0.148180   -1.320010
  C      3.506510    1.054070   -1.108620
  C      2.769730    1.388300    1.124550
  C      3.660860    1.691960    0.112200
  H      2.413260   -0.335740   -2.288280
  H      4.216350    1.262510   -1.902620
  H      2.847760    1.881680    2.088840
  H      4.453150    2.413990    0.280880
  Pd    -0.097870   -1.459190   -0.394610
  Br    -1.596320   -3.544080   -0.372990
  P      1.420750   -3.027670    0.088960
  H      1.100460   -3.716590    1.264200
  C      0.062630   -1.122670   -3.581090
  O      1.068390   -1.727290   -3.934250
  O     -0.811850   -1.459720   -2.717730
  O     -0.223370    0.066820   -4.190650
  H      2.771770   -2.735300    0.354200
  H      1.580610   -4.104980   -0.793490
  H      0.511180    0.250640   -4.782780

----------------------------
CARTESIAN COORDINATES (A.U.)
----------------------------
  NO LB      ZA    FRAG     MASS         X           Y           Z
   0 C     6.0000    0    12.011   -3.912924   -0.141257    0.484942
   1 C     6.0000    0    12.011   -3.307739    1.811529    2.220976
   2 C     6.0000    0    12.011   -6.513149   -0.753717    0.440986
   3 C     6.0000    0    12.011   -8.381899    0.681397    1.657762
   4 C     6.0000    0    12.011   -7.739317    2.781677    3.075095
   5 C     6.0000    0    12.011   -5.203229    3.230562    3.410710
   6 H     1.0000    0     1.008   -2.603702   -1.410699   -2.592666
   7 H     1.0000    0     1.008   -7.176084   -2.418547   -0.542824
   8 H     1.0000    0     1.008   -4.619946    4.770236    4.635895
   9 H     1.0000    0     1.008  -10.365564    0.184626    1.497022
  10 H     1.0000    0     1.008   -9.127831    4.026080    3.936961
  11 C     6.0000    0    12.011   -0.732212    2.699209    3.021275
  12 C     6.0000    0    12.011    1.284088    0.731759    3.714351
  13 H     1.0000    0     1.008   -0.995073    3.913320    4.666055
  14 H     1.0000    0     1.008    0.009619    3.927134    1.541147
  15 C     6.0000    0    12.011    3.270152    0.918105    1.731632
  16 H     1.0000    0     1.008    0.485527   -1.164959    3.849996
  17 H     1.0000    0     1.008    2.079077    1.163145    5.569817
  18 C     6.0000    0    12.011    2.863899   -0.243983   -0.604221
  19 C     6.0000    0    12.011    4.649482    0.280020   -2.494457
  20 C     6.0000    0    12.011    6.626344    1.991904   -2.094988
  21 C     6.0000    0    12.011    5.234031    2.623507    2.125092
  22 C     6.0000    0    12.011    6.918023    3.197341    0.212027
  23 H     1.0000    0     1.008    4.560400   -0.634457   -4.324223
  24 H     1.0000    0     1.008    7.967747    2.385798   -3.595431
  25 H     1.0000    0     1.008    5.381486    3.555860    3.947336
  26 H     1.0000    0     1.008    8.415234    4.561780    0.530786
  27 Pd   18.0000*   0   106.400   -0.184947   -2.757469   -0.745705
  28 Br   35.0000    0    79.900   -3.016608   -6.697341   -0.704849
  29 P    15.0000    0    30.974    2.684828   -5.721467    0.168110
  30 H     1.0000    0     1.008    2.079568   -7.023337    2.388992
  31 C     6.0000    0    12.011    0.118354   -2.121539   -6.767279
  32 O     8.0000    0    15.999    2.018965   -3.264105   -7.434655
  33 O     8.0000    0    15.999   -1.534174   -2.758471   -5.135765
  34 O     8.0000    0    15.999   -0.422108    0.126272   -7.919181
  35 H     1.0000    0     1.008    5.237886   -5.168968    0.669341
  36 H     1.0000    0     1.008    2.986920   -7.757288   -1.499479
  37 H     1.0000    0     1.008    0.965990    0.473641   -9.038144
* core charge reduced due to ECP

--------------------------------
INTERNAL COORDINATES (ANGSTROEM)
--------------------------------
 C      0   0   0     0.000000000000     0.00000000     0.00000000
 C      1   0   0     1.419284393031     0.00000000     0.00000000
 C      1   2   0     1.413825589668   113.40049593     0.00000000
 C      3   1   2     1.403300205587   123.65749105    10.07412153
 C      4   3   1     1.383261225655   120.68901403   357.70051193
 C      5   4   3     1.374422923703   116.67701534   354.15240312
 H      1   2   3     1.893035962073   137.10895639   152.02821665
 H      3   1   2     1.081779001599   120.67811153   190.92878764
 H      6   5   4     1.086024681487   118.96764934   184.89889213
 H      4   3   1     1.085464039985   120.96172227   177.10222490
 H      5   4   3     1.086982676679   123.23614167   175.43252823
 C      2   1   3     1.502508431158   127.93367726   171.01154946
 C     12   2   1     1.535223402277   119.06126372   314.23246764
 H     12   2   1     1.090729437028   107.06128747   192.46202042
 H     12   2   1     1.090784561772   108.07713521    79.19178787
 C     13  12   2     1.488329438196   106.10676655   112.97488637
 H     13  12   2     1.091393565493   111.73316153   350.17574014
 H     13  12   2     1.092318878075   109.91848250   232.29944422
 C     16  13  12     1.397237871409   119.06748693   280.60823048
 C     19  16  13     1.403654846855   116.09790610   171.89034863
 C     20  19  16     1.399881622245   121.55206987   356.16359906
 C     16  13  12     1.392050729428   117.69007696    89.05836641
 C     22  16  13     1.382452384352   120.93735029   190.37897544
 H     20  19  16     1.083488596571   121.28658006   175.80826424
 H     21  20  19     1.085244700148   120.17189207   180.88416530
 H     22  16  13     1.085986974784   118.74948823     8.07397634
 H     23  22  16     1.085128428989   120.19656592   178.62158777
 Pd     7   1   2     1.761089691583    86.10890738    74.72812810
 Br    28   7   1     2.567603189552    84.78561741    93.52848482
 P     28   7   1     2.236107367659   153.82697730   147.78350977
 H     30  28   7     1.399423276961   111.80714817   246.15457425
 C      7   1   2     2.663936849890   164.03425536   356.32215745
 O     32   7   1     1.225496025126   138.79955518    89.98993268
 O     32   7   1     1.274248195015    26.41485231   170.98158738
 O     32   7   1     1.366837903228    97.68906563   298.57024595
 H     30  28   7     1.407511106493   123.15651454   127.99111288
 H     30  28   7     1.401738227416   118.71144268     1.99350648
 H     35  32   7     0.961234327206   106.33431276   154.64630567

---------------------------
INTERNAL COORDINATES (A.U.)
---------------------------
 C      0   0   0     0.000000000000     0.00000000     0.00000000
 C      1   0   0     2.682058808976     0.00000000     0.00000000
 C      1   2   0     2.671743165602   113.40049593     0.00000000
 C      3   1   2     2.651853072234   123.65749105    10.07412153
 C      4   3   1     2.613984888160   120.68901403   357.70051193
 C      5   4   3     2.597282917982   116.67701534   354.15240312
 H      1   2   3     3.577319529981   137.10895639   152.02821665
 H      3   1   2     2.044266050448   120.67811153   190.92878764
 H      6   5   4     2.052289222690   118.96764934   184.89889213
 H      4   3   1     2.051229763791   120.96172227   177.10222490
 H      5   4   3     2.054099571240   123.23614167   175.43252823
 C      2   1   3     2.839329448796   127.93367726   171.01154946
 C     12   2   1     2.901151784691   119.06126372   314.23246764
 H     12   2   1     2.061179922190   107.06128747   192.46202042
 H     12   2   1     2.061284092858   108.07713521    79.19178787
 C     13  12   2     2.812535035243   106.10676655   112.97488637
 H     13  12   2     2.062434943106   111.73316153   350.17574014
 H     13  12   2     2.064183530475   109.91848250   232.29944422
 C     16  13  12     2.640396920906   119.06748693   280.60823048
 C     19  16  13     2.652523247107   116.09790610   171.89034863
 C     20  19  16     2.645392885953   121.55206987   356.16359906
 C     16  13  12     2.630594643144   117.69007696    89.05836641
 C     22  16  13     2.612456399611   120.93735029   190.37897544
 H     20  19  16     2.047496716746   121.28658006   175.80826424
 H     21  20  19     2.050815271570   120.17189207   180.88416530
 H     22  16  13     2.052217967347   118.74948823     8.07397634
 H     23  22  16     2.050595550921   120.19656592   178.62158777
 Pd     7   1   2     3.327977214364    86.10890738    74.72812810
 Br    28   7   1     4.852066848837    84.78561741    93.52848482
 P     28   7   1     4.225630530920   153.82697730   147.78350977
 H     30  28   7     2.644526738891   111.80714817   246.15457425
 C      7   1   2     5.034111084352   164.03425536   356.32215745
 O     32   7   1     2.315851865698   138.79955518    89.98993268
 O     32   7   1     2.407980115223    26.41485231   170.98158738
 O     32   7   1     2.582949306564    97.68906563   298.57024595
 H     30  28   7     2.659810521723   123.15651454   127.99111288
 H     30  28   7     2.648901361265   118.71144268     1.99350648
 H     35  32   7     1.816469628944   106.33431276   154.64630567

---------------------
BASIS SET INFORMATION
---------------------
There are 6 groups of distinct atoms

 Group   1 Type C   : 8s4p1d contracted to 4s2p1d pattern {5111/31/1}
 Group   2 Type H   : 4s contracted to 2s pattern {31}
 Group   3 Type Pd  : 7s6p5d1f contracted to 5s3p2d1f pattern {31111/411/41/1}
 Group   4 Type Br  : 14s10p6d contracted to 5s4p3d pattern {63311/5311/411}
 Group   5 Type P   : 10s7p1d contracted to 4s3p1d pattern {5311/511/1}
 Group   6 Type O   : 8s4p1d contracted to 4s2p1d pattern {5111/31/1}

Atom   0C    basis set group =>   1
Atom   1C    basis set group =>   1
Atom   2C    basis set group =>   1
Atom   3C    basis set group =>   1
Atom   4C    basis set group =>   1
Atom   5C    basis set group =>   1
Atom   6H    basis set group =>   2
Atom   7H    basis set group =>   2
Atom   8H    basis set group =>   2
Atom   9H    basis set group =>   2
Atom  10H    basis set group =>   2
Atom  11C    basis set group =>   1
Atom  12C    basis set group =>   1
Atom  13H    basis set group =>   2
Atom  14H    basis set group =>   2
Atom  15C    basis set group =>   1
Atom  16H    basis set group =>   2
Atom  17H    basis set group =>   2
Atom  18C    basis set group =>   1
Atom  19C    basis set group =>   1
Atom  20C    basis set group =>   1
Atom  21C    basis set group =>   1
Atom  22C    basis set group =>   1
Atom  23H    basis set group =>   2
Atom  24H    basis set group =>   2
Atom  25H    basis set group =>   2
Atom  26H    basis set group =>   2
Atom  27Pd   basis set group =>   3
Atom  28Br   basis set group =>   4
Atom  29P    basis set group =>   5
Atom  30H    basis set group =>   2
Atom  31C    basis set group =>   1
Atom  32O    basis set group =>   6
Atom  33O    basis set group =>   6
Atom  34O    basis set group =>   6
Atom  35H    basis set group =>   2
Atom  36H    basis set group =>   2
Atom  37H    basis set group =>   2
---------------------------------
AUXILIARY/J BASIS SET INFORMATION
---------------------------------
There are 6 groups of distinct atoms

 Group   1 Type C   : 12s5p4d2f1g contracted to 6s4p3d1f1g pattern {711111/2111/211/2/1}
 Group   2 Type H   : 5s2p1d contracted to 3s1p1d pattern {311/2/1}
 Group   3 Type Pd  : 11s5p5d3f3g contracted to 8s5p5d2f3g pattern {41111111/11111/11111/21/111}
 Group   4 Type Br  : 19s5p5d3f1g contracted to 8s4p3d2f1g pattern {121111111/2111/311/21/1}
 Group   5 Type P   : 14s5p5d2f1g contracted to 8s4p3d1f1g pattern {71111111/2111/311/2/1}
 Group   6 Type O   : 12s5p4d2f1g contracted to 6s4p3d1f1g pattern {711111/2111/211/2/1}

Atom   0C    basis set group =>   1
Atom   1C    basis set group =>   1
Atom   2C    basis set group =>   1
Atom   3C    basis set group =>   1
Atom   4C    basis set group =>   1
Atom   5C    basis set group =>   1
Atom   6H    basis set group =>   2
Atom   7H    basis set group =>   2
Atom   8H    basis set group =>   2
Atom   9H    basis set group =>   2
Atom  10H    basis set group =>   2
Atom  11C    basis set group =>   1
Atom  12C    basis set group =>   1
Atom  13H    basis set group =>   2
Atom  14H    basis set group =>   2
Atom  15C    basis set group =>   1
Atom  16H    basis set group =>   2
Atom  17H    basis set group =>   2
Atom  18C    basis set group =>   1
Atom  19C    basis set group =>   1
Atom  20C    basis set group =>   1
Atom  21C    basis set group =>   1
Atom  22C    basis set group =>   1
Atom  23H    basis set group =>   2
Atom  24H    basis set group =>   2
Atom  25H    basis set group =>   2
Atom  26H    basis set group =>   2
Atom  27Pd   basis set group =>   3
Atom  28Br   basis set group =>   4
Atom  29P    basis set group =>   5
Atom  30H    basis set group =>   2
Atom  31C    basis set group =>   1
Atom  32O    basis set group =>   6
Atom  33O    basis set group =>   6
Atom  34O    basis set group =>   6
Atom  35H    basis set group =>   2
Atom  36H    basis set group =>   2
Atom  37H    basis set group =>   2
-------------------------
ECP PARAMETER INFORMATION
-------------------------

 Group 1, Type Pd ECP Def2-ECP (replacing 28 core electrons, lmax=3)

Atom  27Pd   ECP group =>   1



           ************************************************************
           *        Program running with 8 parallel MPI-processes     *
           *              working on a common directory               *
           ************************************************************
------------------------------------------------------------------------------
                           ORCA GTO INTEGRAL CALCULATION
                           -- RI-GTO INTEGRALS CHOSEN --
------------------------------------------------------------------------------
------------------------------------------------------------------------------
                   ___                                                        
                  /   \      - P O W E R E D   B Y -                         
                 /     \                                                     
                 |  |  |   _    _      __       _____    __    __             
                 |  |  |  | |  | |    /  \     |  _  \  |  |  /  |          
                  \  \/   | |  | |   /    \    | | | |  |  | /  /          
                 / \  \   | |__| |  /  /\  \   | |_| |  |  |/  /          
                |  |  |   |  __  | /  /__\  \  |    /   |      \           
                |  |  |   | |  | | |   __   |  |    \   |  |\   \          
                \     /   | |  | | |  |  |  |  | |\  \  |  | \   \       
                 \___/    |_|  |_| |__|  |__|  |_| \__\ |__|  \__/        
                                                                              
                      - O R C A' S   B I G   F R I E N D -                    
                                      &                                       
                       - I N T E G R A L  F E E D E R -                       
                                                                              
 v1 FN, 2020, v2 2021                                                         
------------------------------------------------------------------------------


Reading SHARK input file reaction-3-ieip_optts_Compound_1.SHARKINP.tmp ... ok
----------------------
SHARK INTEGRAL PACKAGE
----------------------

Number of atoms                             ...     38
Number of basis functions                   ...    385
Number of shells                            ...    191
Maximum angular momentum                    ...      3
Integral batch strategy                     ... SHARK/LIBINT Hybrid
RI-J (if used) integral strategy            ... SPLIT-RIJ (Revised 2003 algorithm where possible)
Printlevel                                  ...      1
Contraction scheme used                     ... SEGMENTED contraction
Coulomb Range Separation                    ... NOT USED
Exchange Range Separation                   ... NOT USED
Finite Nucleus Model                        ... NOT USED
Auxiliary Coulomb fitting basis             ... AVAILABLE
   # of basis functions in Aux-J            ...   1267
   # of shells in Aux-J                     ...    413
   Maximum angular momentum in Aux-J        ...      4
Auxiliary J/K fitting basis                 ... NOT available
Auxiliary Correlation fitting basis         ... NOT available
Auxiliary 'external' fitting basis          ... NOT available
Integral threshold                          ...     2.500000e-11
Primitive cut-off                           ...     2.500000e-12
Primitive pair pre-selection threshold      ...     2.500000e-12

Calculating pre-screening integrals         ... done (  0.0 sec) Dimension = 191
Organizing shell pair data                  ... done (  0.1 sec)
Shell pair information
Total number of shell pairs                 ...     18336
Shell pairs after pre-screening             ...     12631
Total number of primitive shell pairs       ...     68628
Primitive shell pairs kept                  ...     29063
          la=0 lb=0:   4489 shell pairs
          la=1 lb=0:   4223 shell pairs
          la=1 lb=1:    955 shell pairs
          la=2 lb=0:   1771 shell pairs
          la=2 lb=1:    860 shell pairs
          la=2 lb=2:    190 shell pairs
          la=3 lb=0:     79 shell pairs
          la=3 lb=1:     43 shell pairs
          la=3 lb=2:     20 shell pairs
          la=3 lb=3:      1 shell pairs

Calculating one electron integrals          ... done (  0.0 sec)
Calculating ECP integrals                   ... done (  0.5 sec)
Calculating RI/J V-Matrix + Cholesky decomp.... done (  0.1 sec)
Calculating Nuclear repulsion               ... done (  0.0 sec) ENN=   2585.851704296594 Eh

SHARK setup successfully completed in   0.9 seconds

Maximum memory used throughout the entire GTOINT-calculation: 27.3 MB


           ************************************************************
           *        Program running with 8 parallel MPI-processes     *
           *              working on a common directory               *
           ************************************************************
-------------------------------------------------------------------------------
                                 ORCA SCF
-------------------------------------------------------------------------------

------------
SCF SETTINGS
------------
Hamiltonian:
 Density Functional     Method          .... DFT(GTOs)
 Exchange Functional    Exchange        .... PBE
   PBE kappa parameter   XKappa         ....  1.024500
   PBE mue parameter    XMuePBE         ....  0.123457
 Correlation Functional Correlation     .... PBE
   PBE beta parameter  CBetaPBE         ....  0.030000
 LDA part of GGA corr.  LDAOpt          .... PW91-LDA
 Gradients option       PostSCFGGA      .... off
 Hybrid DFT is turned on
   Fraction HF Exchange ScalHFX         ....  0.420000
   Scaling of DF-GGA-X  ScalDFX         ....  0.580000
   Scaling of DF-GGA-C  ScalDFC         ....  1.000000
   Scaling of DF-LDA-C  ScalLDAC        ....  1.000000
   Perturbative correction              ....  0.000000
   Density functional embedding theory  .... OFF
 RI-approximation to the Coulomb term is turned on
   Number of AuxJ basis functions       .... 1267
   RIJ-ON(X) (HFX calculated with O(N)) .... on
   Number of AuxJ basis functions       .... 1267
   RIJ-COSX (HFX calculated with COS-X)).... on


General Settings:
 Integral files         IntName         .... reaction-3-ieip_optts_Compound_1
 Hartree-Fock type      HFTyp           .... RHF
 Total Charge           Charge          ....   -1
 Multiplicity           Mult            ....    1
 Number of Electrons    NEL             ....  200
 Basis Dimension        Dim             ....  385
 Nuclear Repulsion      ENuc            ....   2585.8517042966 Eh

Convergence Acceleration:
 DIIS                   CNVDIIS         .... on
   Start iteration      DIISMaxIt       ....    12
   Startup error        DIISStart       ....  0.200000
   # of expansion vecs  DIISMaxEq       ....     5
   Bias factor          DIISBfac        ....   1.050
   Max. coefficient     DIISMaxC        ....  10.000
 Trust-Rad. Augm. Hess. CNVTRAH         .... auto
   Auto Start mean grad. ratio tolernc. ....  1.125000
   Auto Start start iteration           ....    20
   Auto Start num. interpolation iter.  ....    10
   Max. Number of Micro iterations      ....    16
   Max. Number of Macro iterations      .... Maxiter - #DIIS iter
   Number of Davidson start vectors     ....     2
   Converg. threshold I  (grad. norm)   ....   1.000e-05
   Converg. threshold II (energy diff.) ....   1.000e-08
   Grad. Scal. Fac. for Micro threshold ....   0.100
   Minimum threshold for Micro iter.    ....   0.010
   NR start threshold (gradient norm)   ....   0.001
   Initial trust radius                 ....   0.400
   Minimum AH scaling param. (alpha)    ....   1.000
   Maximum AH scaling param. (alpha)    .... 1000.000
   Orbital update algorithm             .... Taylor
   White noise on init. David. guess    .... on
   Maximum white noise                  ....   0.010
   Quad. conv. algorithm                .... NR
   COSX micro iterations for RIJONX calc.... off
 SOSCF                  CNVSOSCF        .... off
 Level Shifting         CNVShift        .... on
   Level shift para.    LevelShift      ....    0.2500
   Turn off err/grad.   ShiftErr        ....    0.0010
 Zerner damping         CNVZerner       .... off
 Static damping         CNVDamp         .... on
   Fraction old density DampFac         ....    0.7000
   Max. Damping (<1)    DampMax         ....    0.9800
   Min. Damping (>=0)   DampMin         ....    0.0000
   Turn off err/grad.   DampErr         ....    0.1000
 Fernandez-Rico         CNVRico         .... off

SCF Procedure:
 Maximum # iterations   MaxIter         ....   125
 SCF integral mode      SCFMode         .... Direct
   Integral package                     .... SHARK and LIBINT hybrid scheme
 Reset frequency        DirectResetFreq ....    20
 Integral Threshold     Thresh          ....  2.500e-11 Eh
 Primitive CutOff       TCut            ....  2.500e-12 Eh

Convergence Tolerance:
 Convergence Check Mode ConvCheckMode   .... Total+1el-Energy
 Convergence forced     ConvForced      .... 0
 Energy Change          TolE            ....  1.000e-08 Eh
 1-El. energy change                    ....  1.000e-05 Eh
 DIIS Error             TolErr          ....  5.000e-07


Diagonalization of the overlap matrix:
Smallest eigenvalue                        ... 3.996e-04
Time for diagonalization                   ...    0.035 sec
Threshold for overlap eigenvalues          ... 1.000e-08
Number of eigenvalues below threshold      ... 0
Time for construction of square roots      ...    0.017 sec
Total time needed                          ...    0.054 sec

--------------------------------
INITIAL GUESS: MINIMAL BASIS EHT
--------------------------------
The minimal basis has 147 functions
EHT matrix was diagonalized
Basis set overlap was calculated now projecting the orbitals
Using GuessMode=FMatrix for the initial guess
C*T matrix was formed
Effective Fockian was calculated
Effective Fockian was diagonalized
Initial density was built
                      ------------------
                      INITIAL GUESS DONE
                      ------------------
-------------------
DFT GRID GENERATION
-------------------

General Integration Accuracy     IntAcc      ... 4.159
Radial Grid Type                 RadialGrid  ... OptM3 with GC (2021)
Angular Grid (max. ang.)         AngularGrid ... 3 (Lebedev-194)
Angular grid pruning method      GridPruning ... 4 (adaptive)
Weight generation scheme         WeightScheme... Becke
Basis function cutoff            BFCut       ... 1.0000e-11
Integration weight cutoff        WCut        ... 1.0000e-14
Angular grids for H and He will be reduced by one unit
Partially contracted basis set               ... off
Rotationally invariant grid construction     ... off

Total number of grid points                  ...    96593
Total number of batches                      ...     1525
Average number of points per batch           ...       63
Average number of grid points per atom       ...     2542
Time for grid setup =    0.459 sec

--------------------
COSX GRID GENERATION
--------------------

GRIDX 1
-------
General Integration Accuracy     IntAcc      ... 3.816
Radial Grid Type                 RadialGrid  ... OptM3 with GC (2021)
Angular Grid (max. ang.)         AngularGrid ... 1 (Lebedev-50)
Angular grid pruning method      GridPruning ... 4 (adaptive)
Weight generation scheme         WeightScheme... Becke
Basis function cutoff            BFCut       ... 1.0000e-11
Integration weight cutoff        WCut        ... 1.0000e-14
Angular grids for H and He will be reduced by one unit
Partially contracted basis set               ... on
Rotationally invariant grid construction     ... off

Total number of grid points                  ...    23622
Total number of batches                      ...      386
Average number of points per batch           ...       61
Average number of grid points per atom       ...      622
UseSFitting                                  ... on

GRIDX 2
-------
General Integration Accuracy     IntAcc      ... 4.020
Radial Grid Type                 RadialGrid  ... OptM3 with GC (2021)
Angular Grid (max. ang.)         AngularGrid ... 2 (Lebedev-110)
Angular grid pruning method      GridPruning ... 4 (adaptive)
Weight generation scheme         WeightScheme... Becke
Basis function cutoff            BFCut       ... 1.0000e-11
Integration weight cutoff        WCut        ... 1.0000e-14
Angular grids for H and He will be reduced by one unit
Partially contracted basis set               ... on
Rotationally invariant grid construction     ... off

Total number of grid points                  ...    51164
Total number of batches                      ...      821
Average number of points per batch           ...       62
Average number of grid points per atom       ...     1346
UseSFitting                                  ... on

GRIDX 3
-------
General Integration Accuracy     IntAcc      ... 4.338
Radial Grid Type                 RadialGrid  ... OptM3 with GC (2021)
Angular Grid (max. ang.)         AngularGrid ... 3 (Lebedev-194)
Angular grid pruning method      GridPruning ... 4 (adaptive)
Weight generation scheme         WeightScheme... Becke
Basis function cutoff            BFCut       ... 1.0000e-11
Integration weight cutoff        WCut        ... 1.0000e-14
Angular grids for H and He will be reduced by one unit
Partially contracted basis set               ... on
Rotationally invariant grid construction     ... off

Total number of grid points                  ...   111618
Total number of batches                      ...     1764
Average number of points per batch           ...       63
Average number of grid points per atom       ...     2937
UseSFitting                                  ... on

Time for X-Grid setup             =    1.059 sec

--------------
SCF ITERATIONS
--------------
ITER       Energy         Delta-E        Max-DP      RMS-DP      [F,P]     Damp
               ***  Starting incremental Fock matrix formation  ***
  0  -3830.5732736582   0.000000000000 4.23396263  0.04405609  5.3015932 0.7000
  1  -3819.3469198156  11.226353842582 5.35561908  0.04952405  4.0387417 0.7000
  2  -3819.2573143869   0.089605428655 2.69571831  0.02404730  2.6746924 0.7000
  3  -3823.8756734620  -4.618359075062 3.95867395  0.03035567  1.9610919 0.7000
  4  -3823.4292634793   0.446409982654 2.55490002  0.02298973  1.2564855 0.7000
  5  -3825.4480949609  -2.018831481523 2.93103567  0.02875147  0.9811888 0.7000
  6  -3821.0748844703   4.373210490532 2.48742224  0.02667338  0.5845135 0.7000
  7  -3824.7084907865  -3.633606316175 3.57396370  0.02798973  0.5066101 0.7000
  8  -3823.4549333759   1.253557410575 2.82951685  0.02711873  0.2900028 0.7000
  9  -3824.6260226962  -1.171089320274 3.69480560  0.03752553  0.2787659 0.7000
 10  -3816.8736049201   7.752417776117 3.00647108  0.03209427  0.2804708 0.7000
 11  -3821.5465810521  -4.672976132042 3.44210721  0.02995929  0.2347443 0.7000
                               ***Turning on DIIS***
 12  -3818.8895400618   2.657040990301 3.14326714  0.03228674  0.2294091 0.7000
 13  -3819.1934930561  -0.303952994252 2.09274136  0.02148652  0.2163092 0.7000
 14  -3827.7016307745  -8.508137718378 1.47341230  0.01514193  0.2550412 0.7000
 15  -3833.8462791297  -6.144648355209 1.03579736  0.01064957  0.2586204 0.7000
 16  -3838.1213974399  -4.275118310239 0.72614926  0.00749538  0.2315185 0.7000
 17  -3841.0706073677  -2.949209927794 0.50565101  0.00529285  0.1845386 0.7000
 18  -3843.1304660877  -2.059858720020 0.35650087  0.00373477  0.1139447 0.7000
 19  -3844.5180366729  -1.387570585141 0.84298892  0.00877856  0.0730835 0.0000
               *** Restarting incremental Fock matrix formation ***
                                   *** Resetting DIIS ***
 20  -3847.6505994193  -3.132562746433 0.02322085  0.00060368  0.0118663 0.0000
 21  -3847.6544293283  -0.003829909008 0.00801953  0.00015890  0.0099871 0.0000
 22  -3847.6555995470  -0.001170218671 0.00406177  0.00007388  0.0019408 0.0000
 23  -3847.6557689614  -0.000169414456 0.00396314  0.00003983  0.0016837 0.0000
 24  -3847.6558296125  -0.000060651082 0.00281196  0.00004539  0.0007017 0.0000
               *** Restarting incremental Fock matrix formation ***
                                   *** Resetting DIIS ***
 25  -3847.6569209297  -0.001091317140 0.00394894  0.00009047  0.0010971 0.0000
 26  -3847.6569521161  -0.000031186456 0.00198404  0.00002931  0.0007168 0.0000
 27  -3847.6569538055  -0.000001689399 0.00106213  0.00000790  0.0010584 0.0000
 28  -3847.6569576215  -0.000003815996 0.00039630  0.00000448  0.0001644 0.0000
 29  -3847.6569579408  -0.000000319311 0.00023585  0.00000209  0.0000972 0.0000
 30  -3847.6569580183  -0.000000077510 0.00014969  0.00000109  0.0000651 0.0000
 31  -3847.6569580286  -0.000000010233 0.00008580  0.00000053  0.0000220 0.0000
 32  -3847.6569580222   0.000000006405 0.00005605  0.00000032  0.0000122 0.0000
 33  -3847.6569580393  -0.000000017133 0.00001601  0.00000012  0.0000053 0.0000
 34  -3847.6569580340   0.000000005292 0.00001853  0.00000011  0.0000048 0.0000
 35  -3847.6569580297   0.000000004295 0.00000357  0.00000003  0.0000012 0.0000
 36  -3847.6569580354  -0.000000005702 0.00000247  0.00000003  0.0000017 0.0000
                            ***DIIS convergence achieved***

               *****************************************************
               *                     SUCCESS                       *
               *           SCF CONVERGED AFTER  37 CYCLES          *
               *****************************************************

Old exchange energy                            =    -97.718492965 Eh
New exchange energy                            =    -97.718588578 Eh
Exchange energy change after final integration =     -0.000095614 Eh
Total energy after final integration           =  -3847.657053635 Eh
Final COS-X integration done in                =     7.634 sec

----------------
TOTAL SCF ENERGY
----------------

Total Energy       :        -3847.65705363 Eh         -104700.07128 eV

Components:
Nuclear Repulsion  :         2585.85170430 Eh           70364.60214 eV
Electronic Energy  :        -6433.50875793 Eh         -175064.67342 eV
One Electron Energy:       -10556.54637825 Eh         -287258.23088 eV
Two Electron Energy:         4123.03762032 Eh          112193.55746 eV
Max COSX asymmetry :            0.00004623 Eh               0.00126 eV

Virial components:
Potential Energy   :        -7606.56334767 Eh         -206985.11161 eV
Kinetic Energy     :         3758.90629404 Eh          102285.04033 eV
Virial Ratio       :            2.02361079


DFT components:
N(Alpha)           :       99.999826841083 electrons
N(Beta)            :       99.999826841083 electrons
N(Total)           :      199.999653682167 electrons
E(X)               :     -130.815521556441 Eh       
E(C)               :       -9.722678926468 Eh       
E(XC)              :     -140.538200482909 Eh       
DFET-embed. en.    :        0.000000000000 Eh       

---------------
SCF CONVERGENCE
---------------

  Last Energy change         ...    1.4623e-08  Tolerance :   1.0000e-08
  Last MAX-Density change    ...    0.0000e+00  Tolerance :   1.0000e-07
  Last RMS-Density change    ...    0.0000e+00  Tolerance :   5.0000e-09
  Last DIIS Error            ...    8.6098e-07  Tolerance :   5.0000e-07

             **** THE GBW FILE WAS UPDATED (reaction-3-ieip_optts_Compound_1.gbw) ****
             **** DENSITY reaction-3-ieip_optts_Compound_1.scfp WAS UPDATED ****
             **** ENERGY FILE WAS UPDATED (reaction-3-ieip_optts_Compound_1.en.tmp) ****
             **** THE GBW FILE WAS UPDATED (reaction-3-ieip_optts_Compound_1.gbw) ****
             **** DENSITY reaction-3-ieip_optts_Compound_1.scfp WAS UPDATED ****
----------------
ORBITAL ENERGIES
----------------

  NO   OCC          E(Eh)            E(eV) 
   0   2.0000    -484.327902    -13179.2322 
   1   2.0000     -77.676559     -2113.6866 
   2   2.0000     -62.989632     -1714.0350 
   3   2.0000     -56.693411     -1542.7061 
   4   2.0000     -56.692230     -1542.6740 
   5   2.0000     -56.692147     -1542.6718 
   6   2.0000     -19.376960      -527.2739 
   7   2.0000     -19.325078      -525.8621 
   8   2.0000     -19.306243      -525.3496 
   9   2.0000     -10.445097      -284.2255 
  10   2.0000     -10.364845      -282.0418 
  11   2.0000     -10.349450      -281.6228 
  12   2.0000     -10.340520      -281.3798 
  13   2.0000     -10.339882      -281.3625 
  14   2.0000     -10.339706      -281.3577 
  15   2.0000     -10.338292      -281.3192 
  16   2.0000     -10.337551      -281.2991 
  17   2.0000     -10.337351      -281.2936 
  18   2.0000     -10.336562      -281.2722 
  19   2.0000     -10.336497      -281.2704 
  20   2.0000     -10.335372      -281.2398 
  21   2.0000     -10.332031      -281.1489 
  22   2.0000     -10.330624      -281.1106 
  23   2.0000     -10.330259      -281.1006 
  24   2.0000      -8.817033      -239.9237 
  25   2.0000      -6.751513      -183.7180 
  26   2.0000      -6.587125      -179.2448 
  27   2.0000      -6.581677      -179.0965 
  28   2.0000      -6.580931      -179.0762 
  29   2.0000      -4.842585      -131.7734 
  30   2.0000      -4.842341      -131.7668 
  31   2.0000      -4.840837      -131.7259 
  32   2.0000      -3.535297       -96.2003 
  33   2.0000      -2.601125       -70.7802 
  34   2.0000      -2.599772       -70.7434 
  35   2.0000      -2.599141       -70.7262 
  36   2.0000      -2.594423       -70.5978 
  37   2.0000      -2.594379       -70.5966 
  38   2.0000      -2.181299       -59.3562 
  39   2.0000      -2.176581       -59.2278 
  40   2.0000      -2.150627       -58.5215 
  41   2.0000      -1.071831       -29.1660 
  42   2.0000      -0.958269       -26.0758 
  43   2.0000      -0.928618       -25.2690 
  44   2.0000      -0.851446       -23.1690 
  45   2.0000      -0.842912       -22.9368 
  46   2.0000      -0.785395       -21.3717 
  47   2.0000      -0.738826       -20.1045 
  48   2.0000      -0.719901       -19.5895 
  49   2.0000      -0.718583       -19.5536 
  50   2.0000      -0.680295       -18.5118 
  51   2.0000      -0.656597       -17.8669 
  52   2.0000      -0.633483       -17.2380 
  53   2.0000      -0.613011       -16.6809 
  54   2.0000      -0.567706       -15.4481 
  55   2.0000      -0.562213       -15.2986 
  56   2.0000      -0.544141       -14.8068 
  57   2.0000      -0.530451       -14.4343 
  58   2.0000      -0.528126       -14.3710 
  59   2.0000      -0.462973       -12.5981 
  60   2.0000      -0.462333       -12.5807 
  61   2.0000      -0.430851       -11.7240 
  62   2.0000      -0.424896       -11.5620 
  63   2.0000      -0.411720       -11.2035 
  64   2.0000      -0.400277       -10.8921 
  65   2.0000      -0.395575       -10.7642 
  66   2.0000      -0.391840       -10.6625 
  67   2.0000      -0.376109       -10.2345 
  68   2.0000      -0.374685       -10.1957 
  69   2.0000      -0.371288       -10.1033 
  70   2.0000      -0.368447       -10.0259 
  71   2.0000      -0.359849        -9.7920 
  72   2.0000      -0.355848        -9.6831 
  73   2.0000      -0.348239        -9.4761 
  74   2.0000      -0.344909        -9.3855 
  75   2.0000      -0.330733        -8.9997 
  76   2.0000      -0.322338        -8.7713 
  77   2.0000      -0.317690        -8.6448 
  78   2.0000      -0.308776        -8.4022 
  79   2.0000      -0.296898        -8.0790 
  80   2.0000      -0.294973        -8.0266 
  81   2.0000      -0.277726        -7.5573 
  82   2.0000      -0.269800        -7.3416 
  83   2.0000      -0.265828        -7.2336 
  84   2.0000      -0.261319        -7.1109 
  85   2.0000      -0.249324        -6.7845 
  86   2.0000      -0.237567        -6.4645 
  87   2.0000      -0.227437        -6.1889 
  88   2.0000      -0.226293        -6.1577 
  89   2.0000      -0.209384        -5.6976 
  90   2.0000      -0.189251        -5.1498 
  91   2.0000      -0.180109        -4.9010 
  92   2.0000      -0.177797        -4.8381 
  93   2.0000      -0.169071        -4.6006 
  94   2.0000      -0.168254        -4.5784 
  95   2.0000      -0.164859        -4.4860 
  96   2.0000      -0.152690        -4.1549 
  97   2.0000      -0.149200        -4.0599 
  98   2.0000      -0.146906        -3.9975 
  99   2.0000      -0.139152        -3.7865 
 100   0.0000       0.071970         1.9584 
 101   0.0000       0.104124         2.8334 
 102   0.0000       0.124069         3.3761 
 103   0.0000       0.132496         3.6054 
 104   0.0000       0.133552         3.6341 
 105   0.0000       0.147260         4.0072 
 106   0.0000       0.158406         4.3104 
 107   0.0000       0.176579         4.8050 
 108   0.0000       0.192823         5.2470 
 109   0.0000       0.213359         5.8058 
 110   0.0000       0.219614         5.9760 
 111   0.0000       0.231298         6.2939 
 112   0.0000       0.238156         6.4805 
 113   0.0000       0.250383         6.8133 
 114   0.0000       0.268951         7.3185 
 115   0.0000       0.275327         7.4920 
 116   0.0000       0.282667         7.6918 
 117   0.0000       0.294691         8.0190 
 118   0.0000       0.297404         8.0928 
 119   0.0000       0.302072         8.2198 
 120   0.0000       0.310134         8.4392 
 121   0.0000       0.316278         8.6064 
 122   0.0000       0.317080         8.6282 
 123   0.0000       0.333672         9.0797 
 124   0.0000       0.334964         9.1148 
 125   0.0000       0.340762         9.2726 
 126   0.0000       0.345388         9.3985 
 127   0.0000       0.360733         9.8160 
 128   0.0000       0.375914        10.2291 
 129   0.0000       0.379247        10.3198 
 130   0.0000       0.390488        10.6257 
 131   0.0000       0.392169        10.6715 
 132   0.0000       0.406351        11.0574 
 133   0.0000       0.412009        11.2113 
 134   0.0000       0.429544        11.6885 
 135   0.0000       0.438097        11.9212 
 136   0.0000       0.438969        11.9450 
 137   0.0000       0.447267        12.1708 
 138   0.0000       0.462106        12.5745 
 139   0.0000       0.475745        12.9457 
 140   0.0000       0.489816        13.3286 
 141   0.0000       0.493164        13.4197 
 142   0.0000       0.500755        13.6262 
 143   0.0000       0.507255        13.8031 
 144   0.0000       0.542572        14.7641 
 145   0.0000       0.553982        15.0746 
 146   0.0000       0.560485        15.2516 
 147   0.0000       0.560570        15.2539 
 148   0.0000       0.587676        15.9915 
 149   0.0000       0.596718        16.2375 
 150   0.0000       0.600706        16.3460 
 151   0.0000       0.614154        16.7120 
 152   0.0000       0.627094        17.0641 
 153   0.0000       0.632460        17.2101 
 154   0.0000       0.636562        17.3217 
 155   0.0000       0.638464        17.3735 
 156   0.0000       0.649160        17.6645 
 157   0.0000       0.652034        17.7428 
 158   0.0000       0.658703        17.9242 
 159   0.0000       0.665411        18.1067 
 160   0.0000       0.673065        18.3150 
 161   0.0000       0.684094        18.6152 
 162   0.0000       0.694532        18.8992 
 163   0.0000       0.699857        19.0441 
 164   0.0000       0.703833        19.1523 
 165   0.0000       0.709925        19.3180 
 166   0.0000       0.714331        19.4379 
 167   0.0000       0.724661        19.7190 
 168   0.0000       0.725374        19.7384 
 169   0.0000       0.728502        19.8235 
 170   0.0000       0.730906        19.8890 
 171   0.0000       0.736507        20.0414 
 172   0.0000       0.738459        20.0945 
 173   0.0000       0.746464        20.3123 
 174   0.0000       0.747645        20.3444 
 175   0.0000       0.757378        20.6093 
 176   0.0000       0.767462        20.8837 
 177   0.0000       0.769378        20.9358 
 178   0.0000       0.781349        21.2616 
 179   0.0000       0.783239        21.3130 
 180   0.0000       0.791138        21.5280 
 181   0.0000       0.795759        21.6537 
 182   0.0000       0.802954        21.8495 
 183   0.0000       0.809758        22.0346 
 184   0.0000       0.813188        22.1280 
 185   0.0000       0.827982        22.5305 
 186   0.0000       0.830337        22.5946 
 187   0.0000       0.836457        22.7612 
 188   0.0000       0.849495        23.1159 
 189   0.0000       0.856489        23.3063 
 190   0.0000       0.864754        23.5312 
 191   0.0000       0.879213        23.9246 
 192   0.0000       0.890050        24.2195 
 193   0.0000       0.898791        24.4573 
 194   0.0000       0.901260        24.5245 
 195   0.0000       0.919028        25.0080 
 196   0.0000       0.921793        25.0833 
 197   0.0000       0.932754        25.3815 
 198   0.0000       0.940578        25.5944 
 199   0.0000       0.956776        26.0352 
 200   0.0000       0.970582        26.4109 
 201   0.0000       0.973570        26.4922 
 202   0.0000       1.001363        27.2485 
 203   0.0000       1.008642        27.4465 
 204   0.0000       1.019165        27.7329 
 205   0.0000       1.028889        27.9975 
 206   0.0000       1.039710        28.2919 
 207   0.0000       1.042716        28.3737 
 208   0.0000       1.049219        28.5507 
 209   0.0000       1.062719        28.9181 
 210   0.0000       1.064807        28.9749 
 211   0.0000       1.074677        29.2434 
 212   0.0000       1.083006        29.4701 
 213   0.0000       1.099183        29.9103 
 214   0.0000       1.100301        29.9407 
 215   0.0000       1.107530        30.1374 
 216   0.0000       1.113218        30.2922 
 217   0.0000       1.120243        30.4833 
 218   0.0000       1.134290        30.8656 
 219   0.0000       1.140791        31.0425 
 220   0.0000       1.147844        31.2344 
 221   0.0000       1.161334        31.6015 
 222   0.0000       1.165320        31.7100 
 223   0.0000       1.177791        32.0493 
 224   0.0000       1.186872        32.2964 
 225   0.0000       1.193862        32.4866 
 226   0.0000       1.201924        32.7060 
 227   0.0000       1.202657        32.7260 
 228   0.0000       1.210378        32.9361 
 229   0.0000       1.218438        33.1554 
 230   0.0000       1.226318        33.3698 
 231   0.0000       1.236030        33.6341 
 232   0.0000       1.245217        33.8841 
 233   0.0000       1.247604        33.9490 
 234   0.0000       1.257648        34.2223 
 235   0.0000       1.261587        34.3295 
 236   0.0000       1.278217        34.7821 
 237   0.0000       1.293843        35.2073 
 238   0.0000       1.305010        35.5111 
 239   0.0000       1.313505        35.7423 
 240   0.0000       1.326570        36.0978 
 241   0.0000       1.336110        36.3574 
 242   0.0000       1.340181        36.4682 
 243   0.0000       1.363529        37.1035 
 244   0.0000       1.372954        37.3600 
 245   0.0000       1.380798        37.5734 
 246   0.0000       1.391904        37.8756 
 247   0.0000       1.416268        38.5386 
 248   0.0000       1.429652        38.9028 
 249   0.0000       1.432013        38.9671 
 250   0.0000       1.451458        39.4962 
 251   0.0000       1.472175        40.0599 
 252   0.0000       1.477626        40.2083 
 253   0.0000       1.483598        40.3708 
 254   0.0000       1.512588        41.1596 
 255   0.0000       1.521498        41.4021 
 256   0.0000       1.543997        42.0143 
 257   0.0000       1.565208        42.5915 
 258   0.0000       1.581359        43.0310 
 259   0.0000       1.600175        43.5430 
 260   0.0000       1.610749        43.8307 
 261   0.0000       1.625144        44.2224 
 262   0.0000       1.639921        44.6245 
 263   0.0000       1.653625        44.9974 
 264   0.0000       1.658020        45.1170 
 265   0.0000       1.673716        45.5441 
 266   0.0000       1.683739        45.8169 
 267   0.0000       1.713730        46.6330 
 268   0.0000       1.732550        47.1451 
 269   0.0000       1.745534        47.4984 
 270   0.0000       1.750935        47.6454 
 271   0.0000       1.765930        48.0534 
 272   0.0000       1.808052        49.1996 
 273   0.0000       1.836040        49.9612 
 274   0.0000       1.878130        51.1065 
 275   0.0000       1.891744        51.4770 
 276   0.0000       1.923031        52.3283 
 277   0.0000       1.942745        52.8648 
 278   0.0000       1.946331        52.9624 
 279   0.0000       1.968906        53.5767 
 280   0.0000       1.978138        53.8279 
 281   0.0000       1.992660        54.2230 
 282   0.0000       2.021310        55.0026 
 283   0.0000       2.037520        55.4437 
 284   0.0000       2.050945        55.8091 
 285   0.0000       2.064457        56.1767 
 286   0.0000       2.076398        56.5017 
 287   0.0000       2.082796        56.6758 
 288   0.0000       2.093434        56.9652 
 289   0.0000       2.114129        57.5284 
 290   0.0000       2.125153        57.8284 
 291   0.0000       2.139041        58.2063 
 292   0.0000       2.143113        58.3171 
 293   0.0000       2.162811        58.8531 
 294   0.0000       2.169285        59.0292 
 295   0.0000       2.187853        59.5345 
 296   0.0000       2.191974        59.6467 
 297   0.0000       2.195514        59.7430 
 298   0.0000       2.226317        60.5812 
 299   0.0000       2.241759        61.0014 
 300   0.0000       2.263945        61.6051 
 301   0.0000       2.279180        62.0196 
 302   0.0000       2.292471        62.3813 
 303   0.0000       2.298090        62.5342 
 304   0.0000       2.305801        62.7440 
 305   0.0000       2.320796        63.1521 
 306   0.0000       2.332568        63.4724 
 307   0.0000       2.346447        63.8501 
 308   0.0000       2.348667        63.9105 
 309   0.0000       2.354826        64.0781 
 310   0.0000       2.371280        64.5258 
 311   0.0000       2.398463        65.2655 
 312   0.0000       2.411349        65.6161 
 313   0.0000       2.423871        65.9569 
 314   0.0000       2.438567        66.3568 
 315   0.0000       2.457187        66.8635 
 316   0.0000       2.468362        67.1675 
 317   0.0000       2.489365        67.7391 
 318   0.0000       2.511034        68.3287 
 319   0.0000       2.524692        68.7004 
 320   0.0000       2.529189        68.8227 
 321   0.0000       2.561083        69.6906 
[...]
 ** NOTE ** -> element pd will be treated as ni
 ** NOTE ** -> element pd will be treated as ni
 ** NOTE ** -> element pd will be treated as ni
   25     -3847.741698   -10.721777    0.002146  0.000670
 ** NOTE ** -> element pd will be treated as ni
 ** NOTE ** -> element pd will be treated as ni
 ** NOTE ** -> element pd will be treated as ni
 ** NOTE ** -> element pd will be treated as ni
   26     -3847.741942   -10.875184    0.002008  0.000671
 ** NOTE ** -> element pd will be treated as ni
 ** NOTE ** -> element pd will be treated as ni
 ** NOTE ** -> element pd will be treated as ni
 ** NOTE ** -> element pd will be treated as ni
   27     -3847.742175   -11.021333    0.002553  0.000688
 ** NOTE ** -> element pd will be treated as ni
 ** NOTE ** -> element pd will be treated as ni
 ** NOTE ** -> element pd will be treated as ni
 ** NOTE ** -> element pd will be treated as ni
   28     -3847.742392   -11.157258    0.002259  0.000722
 ** NOTE ** -> element pd will be treated as ni
 ** NOTE ** -> element pd will be treated as ni
 ** NOTE ** -> element pd will be treated as ni
 ** NOTE ** -> element pd will be treated as ni
   29     -3847.742589   -11.281036    0.003691  0.000777
 ** NOTE ** -> element pd will be treated as ni
 ** NOTE ** -> element pd will be treated as ni
 ** NOTE ** -> element pd will be treated as ni
 ** NOTE ** -> element pd will be treated as ni
 ** NOTE ** -> element pd will be treated as ni
 ** NOTE ** -> element pd will be treated as ni
   30     -3847.742676   -11.335926    0.003040  0.000677
 ** NOTE ** -> element pd will be treated as ni
 ** NOTE ** -> element pd will be treated as ni
 ** NOTE ** -> element pd will be treated as ni
 ** NOTE ** -> element pd will be treated as ni
   31     -3847.742782   -11.402313    0.002021  0.000599
 ** NOTE ** -> element pd will be treated as ni
 ** NOTE ** -> element pd will be treated as ni
 ** NOTE ** -> element pd will be treated as ni
 ** NOTE ** -> element pd will be treated as ni
   32     -3847.742896   -11.474055    0.002021  0.000593
 ** NOTE ** -> element pd will be treated as ni
 ** NOTE ** -> element pd will be treated as ni
 ** NOTE ** -> element pd will be treated as ni
 ** NOTE ** -> element pd will be treated as ni
   33     -3847.743009   -11.544917    0.002015  0.000589
 ** NOTE ** -> element pd will be treated as ni
 ** NOTE ** -> element pd will be treated as ni
 ** NOTE ** -> element pd will be treated as ni
 ** NOTE ** -> element pd will be treated as ni
   34     -3847.743121   -11.614908    0.002014  0.000582
 ** NOTE ** -> element pd will be treated as ni
 ** NOTE ** -> element pd will be treated as ni
 ** NOTE ** -> element pd will be treated as ni
 ** NOTE ** -> element pd will be treated as ni
   35     -3847.743231   -11.684285    0.002008  0.000577
 ** NOTE ** -> element pd will be treated as ni
 ** NOTE ** -> element pd will be treated as ni
 ** NOTE ** -> element pd will be treated as ni
 ** NOTE ** -> element pd will be treated as ni
   36     -3847.743341   -11.752837    0.002005  0.000571
 ** NOTE ** -> element pd will be treated as ni
 ** NOTE ** -> element pd will be treated as ni
 ** NOTE ** -> element pd will be treated as ni
 ** NOTE ** -> element pd will be treated as ni
   37     -3847.743449   -11.820784    0.001997  0.000566
 ** NOTE ** -> element pd will be treated as ni
 ** NOTE ** -> element pd will be treated as ni
 ** NOTE ** -> element pd will be treated as ni
 ** NOTE ** -> element pd will be treated as ni
   38     -3847.743556   -11.887895    0.001994  0.000561
 ** NOTE ** -> element pd will be treated as ni
 ** NOTE ** -> element pd will be treated as ni
 ** NOTE ** -> element pd will be treated as ni
 ** NOTE ** -> element pd will be treated as ni
   39     -3847.743662   -11.954450    0.001984  0.000556
 ** NOTE ** -> element pd will be treated as ni
 ** NOTE ** -> element pd will be treated as ni
 ** NOTE ** -> element pd will be treated as ni
 ** NOTE ** -> element pd will be treated as ni
   40     -3847.743767   -12.020257    0.001981  0.000551
 ** NOTE ** -> element pd will be treated as ni
 ** NOTE ** -> element pd will be treated as ni
 ** NOTE ** -> element pd will be treated as ni
 ** NOTE ** -> element pd will be treated as ni
   41     -3847.743871   -12.085419    0.001970  0.000546
 ** NOTE ** -> element pd will be treated as ni
 ** NOTE ** -> element pd will be treated as ni
 ** NOTE ** -> element pd will be treated as ni
 ** NOTE ** -> element pd will be treated as ni
   42     -3847.743973   -12.149882    0.001965  0.000541
 ** NOTE ** -> element pd will be treated as ni
 ** NOTE ** -> element pd will be treated as ni
 ** NOTE ** -> element pd will be treated as ni
 ** NOTE ** -> element pd will be treated as ni
   43     -3847.744075   -12.213763    0.001953  0.000536
 ** NOTE ** -> element pd will be treated as ni
 ** NOTE ** -> element pd will be treated as ni
 ** NOTE ** -> element pd will be treated as ni
 ** NOTE ** -> element pd will be treated as ni
   44     -3847.744176   -12.276942    0.001948  0.000531
 ** NOTE ** -> element pd will be treated as ni
 ** NOTE ** -> element pd will be treated as ni
 ** NOTE ** -> element pd will be treated as ni
 ** NOTE ** -> element pd will be treated as ni
   45     -3847.744276   -12.339567    0.001934  0.000527
 ** NOTE ** -> element pd will be treated as ni
 ** NOTE ** -> element pd will be treated as ni
 ** NOTE ** -> element pd will be treated as ni
 ** NOTE ** -> element pd will be treated as ni
   46     -3847.744374   -12.401458    0.001929  0.000522
 ** NOTE ** -> element pd will be treated as ni
 ** NOTE ** -> element pd will be treated as ni
 ** NOTE ** -> element pd will be treated as ni
 ** NOTE ** -> element pd will be treated as ni
   47     -3847.744472   -12.462874    0.001917  0.000519
 ** NOTE ** -> element pd will be treated as ni
 ** NOTE ** -> element pd will be treated as ni
 ** NOTE ** -> element pd will be treated as ni
 ** NOTE ** -> element pd will be treated as ni
   48     -3847.744569   -12.523569    0.001911  0.000513
 ** NOTE ** -> element pd will be treated as ni
 ** NOTE ** -> element pd will be treated as ni
 ** NOTE ** -> element pd will be treated as ni
 ** NOTE ** -> element pd will be treated as ni
   49     -3847.744665   -12.583739    0.001897  0.000509
 ** NOTE ** -> element pd will be treated as ni
 ** NOTE ** -> element pd will be treated as ni
 ** NOTE ** -> element pd will be treated as ni
 ** NOTE ** -> element pd will be treated as ni
   50     -3847.744760   -12.643349    0.001890  0.000504
 ** NOTE ** -> element pd will be treated as ni
 ** NOTE ** -> element pd will be treated as ni
 ** NOTE ** -> element pd will be treated as ni
 ** NOTE ** -> element pd will be treated as ni
   51     -3847.744854   -12.702393    0.001874  0.000501
 ** NOTE ** -> element pd will be treated as ni
 ** NOTE ** -> element pd will be treated as ni
 ** NOTE ** -> element pd will be treated as ni
 ** NOTE ** -> element pd will be treated as ni
   52     -3847.744947   -12.760845    0.001867  0.000496

                      ***********************HURRAY********************
                      ***            THE IRC HAS CONVERGED          ***
                      *************************************************


         *************************************************************
         *                          BACKWARD IRC                     *
         *************************************************************

 ** NOTE ** -> element pd will be treated as ni
Iteration    E(Eh)      dE(kcal/mol)  max(|G|)   RMS(G) 
Convergence thresholds                0.002000  0.000500            
    0     -3847.725780   -0.733100    0.008348  0.001678
 ** NOTE ** -> element pd will be treated as ni
 ** NOTE ** -> element pd will be treated as ni
 ** NOTE ** -> element pd will be treated as ni
 ** NOTE ** -> element pd will be treated as ni
 ** NOTE ** -> element pd will be treated as ni
 ** NOTE ** -> element pd will be treated as ni
    1     -3847.726152   -0.966976    0.006042  0.001390
 ** NOTE ** -> element pd will be treated as ni
 ** NOTE ** -> element pd will be treated as ni
 ** NOTE ** -> element pd will be treated as ni
 ** NOTE ** -> element pd will be treated as ni
 ** NOTE ** -> element pd will be treated as ni
 ** NOTE ** -> element pd will be treated as ni
    2     -3847.726422   -1.136288    0.006489  0.001181
 ** NOTE ** -> element pd will be treated as ni
 ** NOTE ** -> element pd will be treated as ni
 ** NOTE ** -> element pd will be treated as ni
 ** NOTE ** -> element pd will be treated as ni
    3     -3847.726827   -1.390057    0.006825  0.001052
 ** NOTE ** -> element pd will be treated as ni
 ** NOTE ** -> element pd will be treated as ni
 ** NOTE ** -> element pd will be treated as ni
 ** NOTE ** -> element pd will be treated as ni
    4     -3847.727245   -1.652792    0.006340  0.001013
 ** NOTE ** -> element pd will be treated as ni
 ** NOTE ** -> element pd will be treated as ni
 ** NOTE ** -> element pd will be treated as ni
 ** NOTE ** -> element pd will be treated as ni
    5     -3847.727644   -1.903092    0.005785  0.000973
 ** NOTE ** -> element pd will be treated as ni
 ** NOTE ** -> element pd will be treated as ni
 ** NOTE ** -> element pd will be treated as ni
 ** NOTE ** -> element pd will be treated as ni
    6     -3847.728016   -2.136506    0.004935  0.000913
 ** NOTE ** -> element pd will be treated as ni
 ** NOTE ** -> element pd will be treated as ni
 ** NOTE ** -> element pd will be treated as ni
 ** NOTE ** -> element pd will be treated as ni
    7     -3847.728368   -2.357034    0.004360  0.000860
 ** NOTE ** -> element pd will be treated as ni
 ** NOTE ** -> element pd will be treated as ni
 ** NOTE ** -> element pd will be treated as ni
 ** NOTE ** -> element pd will be treated as ni
    8     -3847.728696   -2.563117    0.004310  0.000806
 ** NOTE ** -> element pd will be treated as ni
 ** NOTE ** -> element pd will be treated as ni
 ** NOTE ** -> element pd will be treated as ni
 ** NOTE ** -> element pd will be treated as ni
    9     -3847.729004   -2.756412    0.003937  0.000756
 ** NOTE ** -> element pd will be treated as ni
 ** NOTE ** -> element pd will be treated as ni
 ** NOTE ** -> element pd will be treated as ni
 ** NOTE ** -> element pd will be treated as ni
   10     -3847.729294   -2.938548    0.003861  0.000715
 ** NOTE ** -> element pd will be treated as ni
 ** NOTE ** -> element pd will be treated as ni
 ** NOTE ** -> element pd will be treated as ni
 ** NOTE ** -> element pd will be treated as ni
   11     -3847.729567   -3.109532    0.003490  0.000673
 ** NOTE ** -> element pd will be treated as ni
 ** NOTE ** -> element pd will be treated as ni
 ** NOTE ** -> element pd will be treated as ni
 ** NOTE ** -> element pd will be treated as ni
   12     -3847.729827   -3.272627    0.003395  0.000644
 ** NOTE ** -> element pd will be treated as ni
 ** NOTE ** -> element pd will be treated as ni
 ** NOTE ** -> element pd will be treated as ni
 ** NOTE ** -> element pd will be treated as ni
   13     -3847.730072   -3.426707    0.003090  0.000610
 ** NOTE ** -> element pd will be treated as ni
 ** NOTE ** -> element pd will be treated as ni
 ** NOTE ** -> element pd will be treated as ni
 ** NOTE ** -> element pd will be treated as ni
   14     -3847.730309   -3.575185    0.002912  0.000589
 ** NOTE ** -> element pd will be treated as ni
 ** NOTE ** -> element pd will be treated as ni
 ** NOTE ** -> element pd will be treated as ni
 ** NOTE ** -> element pd will be treated as ni
   15     -3847.730535   -3.717074    0.002738  0.000564
 ** NOTE ** -> element pd will be treated as ni
 ** NOTE ** -> element pd will be treated as ni
 ** NOTE ** -> element pd will be treated as ni
 ** NOTE ** -> element pd will be treated as ni
   16     -3847.730754   -3.854257    0.002593  0.000546
 ** NOTE ** -> element pd will be treated as ni
 ** NOTE ** -> element pd will be treated as ni
 ** NOTE ** -> element pd will be treated as ni
 ** NOTE ** -> element pd will be treated as ni
   17     -3847.730964   -3.986128    0.002464  0.000534
 ** NOTE ** -> element pd will be treated as ni
 ** NOTE ** -> element pd will be treated as ni
 ** NOTE ** -> element pd will be treated as ni
 ** NOTE ** -> element pd will be treated as ni
   18     -3847.731163   -4.111193    0.002497  0.000537
 ** NOTE ** -> element pd will be treated as ni
 ** NOTE ** -> element pd will be treated as ni
 ** NOTE ** -> element pd will be treated as ni
 ** NOTE ** -> element pd will be treated as ni
   19     -3847.731347   -4.226573    0.002343  0.000563
 ** NOTE ** -> element pd will be treated as ni
 ** NOTE ** -> element pd will be treated as ni
 ** NOTE ** -> element pd will be treated as ni
 ** NOTE ** -> element pd will be treated as ni
   20     -3847.731507   -4.326952    0.003014  0.000659
 ** NOTE ** -> element pd will be treated as ni
 ** NOTE ** -> element pd will be treated as ni
 ** NOTE ** -> element pd will be treated as ni
 ** NOTE ** -> element pd will be treated as ni
 ** NOTE ** -> element pd will be treated as ni
 ** NOTE ** -> element pd will be treated as ni
   21     -3847.731554   -4.356767    0.002631  0.000527
 ** NOTE ** -> element pd will be treated as ni
 ** NOTE ** -> element pd will be treated as ni
 ** NOTE ** -> element pd will be treated as ni
 ** NOTE ** -> element pd will be treated as ni
   22     -3847.731639   -4.410085    0.001967  0.000470

                      ***********************HURRAY********************
                      ***            THE IRC HAS CONVERGED          ***
                      *************************************************


---------------------------------------------------------------
                       IRC PATH SUMMARY              
---------------------------------------------------------------
All gradients are in Eh/Bohr.

Step        E(Eh)      dE(kcal/mol)  max(|G|)   RMS(G) 
   1     -3847.731639   -4.410085    0.001967  0.000470
   2     -3847.731554   -4.356767    0.002631  0.000527
   3     -3847.731507   -4.326952    0.003014  0.000659
   4     -3847.731347   -4.226573    0.002343  0.000563
   5     -3847.731163   -4.111193    0.002497  0.000537
   6     -3847.730964   -3.986128    0.002464  0.000534
   7     -3847.730754   -3.854257    0.002593  0.000546
   8     -3847.730535   -3.717074    0.002738  0.000564
   9     -3847.730309   -3.575185    0.002912  0.000589
  10     -3847.730072   -3.426707    0.003090  0.000610
  11     -3847.729827   -3.272627    0.003395  0.000644
  12     -3847.729567   -3.109532    0.003490  0.000673
  13     -3847.729294   -2.938548    0.003861  0.000715
  14     -3847.729004   -2.756412    0.003937  0.000756
  15     -3847.728696   -2.563117    0.004310  0.000806
  16     -3847.728368   -2.357034    0.004360  0.000860
  17     -3847.728016   -2.136506    0.004935  0.000913
  18     -3847.727644   -1.903092    0.005785  0.000973
  19     -3847.727245   -1.652792    0.006340  0.001013
  20     -3847.726827   -1.390057    0.006825  0.001052
  21     -3847.726422   -1.136288    0.006489  0.001181
  22     -3847.726152   -0.966976    0.006042  0.001390
  23     -3847.725780   -0.733100    0.008348  0.001678
  24     -3847.724611    0.000000    0.000069  0.000027 <= TS
  25     -3847.726577   -1.233168    0.010929  0.002108
  26     -3847.729245   -2.907787    0.016389  0.002633
  27     -3847.730100   -3.444306    0.014373  0.002241
  28     -3847.731445   -4.287862    0.011132  0.001820
  29     -3847.732767   -5.117516    0.008740  0.001624
  30     -3847.733872   -5.811013    0.007134  0.001420
  31     -3847.734846   -6.422420    0.005559  0.001287
  32     -3847.735704   -6.960942    0.004990  0.001223
  33     -3847.736451   -7.429764    0.004999  0.001276
  34     -3847.736718   -7.596888    0.005020  0.001154
  35     -3847.737067   -7.815877    0.003508  0.000972
  36     -3847.737445   -8.053318    0.003429  0.000951
  37     -3847.737806   -8.279893    0.003131  0.000912
  38     -3847.738159   -8.501280    0.003122  0.000887
  39     -3847.738500   -8.715289    0.002844  0.000859
  40     -3847.738832   -8.923632    0.002854  0.000836
  41     -3847.739154   -9.125581    0.002587  0.000812
  42     -3847.739467   -9.322345    0.002628  0.000792
  43     -3847.739772   -9.513536    0.002396  0.000771
  44     -3847.740069   -9.699913    0.002436  0.000753
  45     -3847.740358   -9.881353    0.002272  0.000734
  46     -3847.740640   -10.058326    0.002269  0.000718
  47     -3847.740915   -10.230900    0.002151  0.000702
  48     -3847.741183   -10.399058    0.002169  0.000688
  49     -3847.741444   -10.562842    0.002026  0.000677
  50     -3847.741698   -10.721777    0.002146  0.000670
  51     -3847.741942   -10.875184    0.002008  0.000671
  52     -3847.742175   -11.021333    0.002553  0.000688
  53     -3847.742392   -11.157258    0.002259  0.000722
  54     -3847.742589   -11.281036    0.003691  0.000777
  55     -3847.742676   -11.335926    0.003040  0.000677
  56     -3847.742782   -11.402313    0.002021  0.000599
  57     -3847.742896   -11.474055    0.002021  0.000593
  58     -3847.743009   -11.544917    0.002015  0.000589
  59     -3847.743121   -11.614908    0.002014  0.000582
  60     -3847.743231   -11.684285    0.002008  0.000577
  61     -3847.743341   -11.752837    0.002005  0.000571
  62     -3847.743449   -11.820784    0.001997  0.000566
  63     -3847.743556   -11.887895    0.001994  0.000561
  64     -3847.743662   -11.954450    0.001984  0.000556
  65     -3847.743767   -12.020257    0.001981  0.000551
  66     -3847.743871   -12.085419    0.001970  0.000546
  67     -3847.743973   -12.149882    0.001965  0.000541
  68     -3847.744075   -12.213763    0.001953  0.000536
  69     -3847.744176   -12.276942    0.001948  0.000531
  70     -3847.744276   -12.339567    0.001934  0.000527
  71     -3847.744374   -12.401458    0.001929  0.000522
  72     -3847.744472   -12.462874    0.001917  0.000519
  73     -3847.744569   -12.523569    0.001911  0.000513
  74     -3847.744665   -12.583739    0.001897  0.000509
  75     -3847.744760   -12.643349    0.001890  0.000504
  76     -3847.744854   -12.702393    0.001874  0.000501
  77     -3847.744947   -12.760845    0.001867  0.000496

Timings for individual modules:

Sum of individual times         ...    17630.778 sec (= 293.846 min)
GTO integral calculation        ...      427.639 sec (=   7.127 min)   2.4 %
SCF iterations                  ...    14586.491 sec (= 243.108 min)  82.7 %
SCF Gradient evaluation         ...     2616.649 sec (=  43.611 min)  14.8 %
================================================================================

cite the ECPs for Pd [Def2-ECP] as follows:
Ce-Yb(ecp-28): M. Dolg, H. Stoll, H.Preuss, J. Chem. Phys., 1989, 90, 1730-1734.
Y-Cd(ecp-28), Hf-Hg(ecp-46): D. Andrae,U. Haeussermann, M. Dolg, H. Stoll, H. Preuss, Theor. Chim. Acta, 1990, 77, 123-141.
In-Sb(ecp-28), Tl-Bi(ecp-46): B. Metz, H. Stoll, M. Dolg, J. Chem. Phys., 2000, 113, 2563-2569.
Te-Xe(ecp-28), Po-Rn(ecp-46): K. A. Peterson, D. Figgen, E. Goll, H. Stoll, M. Dolg, J. Chem. Phys., 2003, 119, 11113-11123.
Rb(ecp-28), Cs(ecp-46): T. Leininger, A. Nicklass, W. Kuechle, H. Stoll, M. Dolg, A. Bergner, Chem. Phys. Lett., 1996, 255, 274-280.
Sr(ecp-28), Ba(ecp-46): M. Kaupp, P. V. Schleyer, H. Stoll and H. Preuss, J. Chem. Phys., 1991, 94, 1360-1366.
La(ecp-46): M. Dolg, H. Stoll, A. Savin, H. Preuss, Theor. Chim. Acta, 1989, 75, 173-194.
Lu(ecp-28): X. Cao, M. Dolg, J. Chem. Phys., 2001, 115, 7348-7355.

ECP parameters for Pd [Def2-ECP] have been obtained from:
TURBOMOLE (7.0.2)

----- Orbital basis set information -----
Your calculation utilizes the basis: def2-SVP
   F. Weigend and R. Ahlrichs, Phys. Chem. Chem. Phys. 7, 3297 (2005).

                             ****ORCA TERMINATED NORMALLY****
TOTAL RUN TIME: 0 days 6 hours 59 minutes 8 seconds 546 msec
