
                                 *****************
                                 * O   R   C   A *
                                 *****************

                                            #,                                       
                                            ###                                      
                                            ####                                     
                                            #####                                    
                                            ######                                   
                                           ########,                                 
                                     ,,################,,,,,                         
                               ,,#################################,,                 
                          ,,##########################################,,             
                       ,#########################################, ''#####,          
                    ,#############################################,,   '####,        
                  ,##################################################,,,,####,       
                ,###########''''           ''''###############################       
              ,#####''   ,,,,##########,,,,          '''####'''          '####       
            ,##' ,,,,###########################,,,                        '##       
           ' ,,###''''                  '''############,,,                           
         ,,##''                                '''############,,,,        ,,,,,,###''
      ,#''                                            '''#######################'''  
     '                                                          ''''####''''         
             ,#######,   #######,   ,#######,      ##                                
            ,#'     '#,  ##    ##  ,#'     '#,    #''#        ######   ,####,        
            ##       ##  ##   ,#'  ##            #'  '#       #        #'  '#        
            ##       ##  #######   ##           ,######,      #####,   #    #        
            '#,     ,#'  ##    ##  '#,     ,#' ,#      #,         ##   #,  ,#        
             '#######'   ##     ##  '#######'  #'      '#     #####' # '####'        



                  #######################################################
                  #                        -***-                        #
                  #          Department of theory and spectroscopy      #
                  #    Directorship and core code : Frank Neese         #
                  #        Max Planck Institute fuer Kohlenforschung    #
                  #                Kaiser Wilhelm Platz 1               #
                  #                 D-45470 Muelheim/Ruhr               #
                  #                      Germany                        #
                  #                                                     #
                  #                  All rights reserved                #
                  #                        -***-                        #
                  #######################################################


                         Program Version 5.0.3 -  RELEASE  -


 With contributions from (in alphabetic order):
   Daniel Aravena         : Magnetic Suceptibility
   Michael Atanasov       : Ab Initio Ligand Field Theory (pilot matlab implementation)
   Alexander A. Auer      : GIAO ZORA, VPT2 properties, NMR spectrum
   Ute Becker             : Parallelization
   Giovanni Bistoni       : ED, misc. LED, open-shell LED, HFLD
   Martin Brehm           : Molecular dynamics
   Dmytro Bykov           : SCF Hessian
   Vijay G. Chilkuri      : MRCI spin determinant printing, contributions to CSF-ICE
   Dipayan Datta          : RHF DLPNO-CCSD density
   Achintya Kumar Dutta   : EOM-CC, STEOM-CC
   Dmitry Ganyushin       : Spin-Orbit,Spin-Spin,Magnetic field MRCI
   Miquel Garcia          : C-PCM and meta-GGA Hessian, CC/C-PCM, Gaussian charge scheme
   Yang Guo               : DLPNO-NEVPT2, F12-NEVPT2, CIM, IAO-localization
   Andreas Hansen         : Spin unrestricted coupled pair/coupled cluster methods
   Benjamin Helmich-Paris : MC-RPA, TRAH-SCF, COSX integrals
   Lee Huntington         : MR-EOM, pCC
   Robert Izsak           : Overlap fitted RIJCOSX, COSX-SCS-MP3, EOM
   Marcus Kettner         : VPT2
   Christian Kollmar      : KDIIS, OOCD, Brueckner-CCSD(T), CCSD density, CASPT2, CASPT2-K
   Simone Kossmann        : Meta GGA functionals, TD-DFT gradient, OOMP2, MP2 Hessian
   Martin Krupicka        : Initial AUTO-CI
   Lucas Lang             : DCDCAS
   Marvin Lechner         : AUTO-CI (C++ implementation), FIC-MRCC
   Dagmar Lenk            : GEPOL surface, SMD
   Dimitrios Liakos       : Extrapolation schemes; Compound Job, initial MDCI parallelization
   Dimitrios Manganas     : Further ROCIS development; embedding schemes
   Dimitrios Pantazis     : SARC Basis sets
   Anastasios Papadopoulos: AUTO-CI, single reference methods and gradients
   Taras Petrenko         : DFT Hessian,TD-DFT gradient, ASA, ECA, R-Raman, ABS, FL, XAS/XES, NRVS
   Peter Pinski           : DLPNO-MP2, DLPNO-MP2 Gradient
   Christoph Reimann      : Effective Core Potentials
   Marius Retegan         : Local ZFS, SOC
   Christoph Riplinger    : Optimizer, TS searches, QM/MM, DLPNO-CCSD(T), (RO)-DLPNO pert. Triples
   Tobias Risthaus        : Range-separated hybrids, TD-DFT gradient, RPA, STAB
   Michael Roemelt        : Original ROCIS implementation
   Masaaki Saitow         : Open-shell DLPNO-CCSD energy and density
   Barbara Sandhoefer     : DKH picture change effects
   Avijit Sen             : IP-ROCIS
   Kantharuban Sivalingam : CASSCF convergence, NEVPT2, FIC-MRCI
   Bernardo de Souza      : ESD, SOC TD-DFT
   Georgi Stoychev        : AutoAux, RI-MP2 NMR, DLPNO-MP2 response
   Willem Van den Heuvel  : Paramagnetic NMR
   Boris Wezisla          : Elementary symmetry handling
   Frank Wennmohs         : Technical directorship


 We gratefully acknowledge several colleagues who have allowed us to
 interface, adapt or use parts of their codes:
   Stefan Grimme, W. Hujo, H. Kruse, P. Pracht,  : VdW corrections, initial TS optimization,
                  C. Bannwarth, S. Ehlert          DFT functionals, gCP, sTDA/sTD-DF
   Ed Valeev, F. Pavosevic, A. Kumar             : LibInt (2-el integral package), F12 methods
   Garnet Chan, S. Sharma, J. Yang, R. Olivares  : DMRG
   Ulf Ekstrom                                   : XCFun DFT Library
   Mihaly Kallay                                 : mrcc  (arbitrary order and MRCC methods)
   Jiri Pittner, Ondrej Demel                    : Mk-CCSD
   Frank Weinhold                                : gennbo (NPA and NBO analysis)
   Christopher J. Cramer and Donald G. Truhlar   : smd solvation model
   Lars Goerigk                                  : TD-DFT with DH, B97 family of functionals
   V. Asgeirsson, H. Jonsson                     : NEB implementation
   FAccTs GmbH                                   : IRC, NEB, NEB-TS, DLPNO-Multilevel, CI-OPT
                                                   MM, QMMM, 2- and 3-layer-ONIOM, Crystal-QMMM,
                                                   LR-CPCM, SF, NACMEs, symmetry and pop. for TD-DFT,
                                                   nearIR, NL-DFT gradient (VV10), updates on ESD,
                                                   ML-optimized integration grids
   S Lehtola, MJT Oliveira, MAL Marques          : LibXC Library
   Liviu Ungur et al                             : ANISO software


 Your calculation uses the libint2 library for the computation of 2-el integrals
 For citations please refer to: http://libint.valeyev.net

 Your ORCA version has been built with support for libXC version: 5.1.0
 For citations please refer to: https://tddft.org/programs/libxc/

 This ORCA versions uses:
   CBLAS   interface :  Fast vector & matrix operations
   LAPACKE interface :  Fast linear algebra routines
   SCALAPACK package :  Parallel linear algebra routines
   Shared memory     :  Shared parallel matrices
   BLAS/LAPACK       :  OpenBLAS 0.3.15  USE64BITINT DYNAMIC_ARCH NO_AFFINITY Prescott SINGLE_THREADED
        Core in use  :  Prescott
   Copyright (c) 2011-2014, The OpenBLAS Project


Your calculation utilizes the geometrical counterpoise correction gCP
Please cite in your paper:
H.Kruse, S. Grimme J.Chem.Phys., 136, (2012), 154101 
   

Your calculation utilizes the atom-pairwise dispersion correction
with the Becke-Johnson damping scheme (D3BJ)
Cite in your paper:
S.Grimme, S.Ehrlich, L.Goerigk, J Comput Chem, (2011), 32, 1456–1465 
S.Grimme, J.Antony, S.Ehrlich and H.Krieg, J.Chem.Phys., 132, (2010), 154104 
   

Your calculation employs the composite approach PBEh-3c.
Please cite in your paper:
S. Grimme, J. G. Brandenburg, C. Bannwarth, A. Hansen J.Chem.Phys., 143, (2015), 054107 
   

================================================================================

cite the ECPs for Lu [Def2-ECP] as follows:
Ce-Yb(ecp-28): M. Dolg, H. Stoll, H.Preuss, J. Chem. Phys., 1989, 90, 1730-1734.
Y-Cd(ecp-28), Hf-Hg(ecp-46): D. Andrae,U. Haeussermann, M. Dolg, H. Stoll, H. Preuss, Theor. Chim. Acta, 1990, 77, 123-141.
In-Sb(ecp-28), Tl-Bi(ecp-46): B. Metz, H. Stoll, M. Dolg, J. Chem. Phys., 2000, 113, 2563-2569.
Te-Xe(ecp-28), Po-Rn(ecp-46): K. A. Peterson, D. Figgen, E. Goll, H. Stoll, M. Dolg, J. Chem. Phys., 2003, 119, 11113-11123.
Rb(ecp-28), Cs(ecp-46): T. Leininger, A. Nicklass, W. Kuechle, H. Stoll, M. Dolg, A. Bergner, Chem. Phys. Lett., 1996, 255, 274-280.
Sr(ecp-28), Ba(ecp-46): M. Kaupp, P. V. Schleyer, H. Stoll and H. Preuss, J. Chem. Phys., 1991, 94, 1360-1366.
La(ecp-46): M. Dolg, H. Stoll, A. Savin, H. Preuss, Theor. Chim. Acta, 1989, 75, 173-194.
Lu(ecp-28): X. Cao, M. Dolg, J. Chem. Phys., 2001, 115, 7348-7355.

ECP parameters for Lu [Def2-ECP] have been obtained from:
TURBOMOLE (7.0.2)

----- Orbital basis set information -----
Your calculation utilizes the basis: def2-mSVP

----- AuxJ basis set information -----
Your calculation utilizes the auxiliary basis: def2/J
   F. Weigend, Phys. Chem. Chem. Phys. 8, 1057 (2006).

================================================================================
                                        WARNINGS
                       Please study these warnings very carefully!
================================================================================


WARNING: No Hueckel Guess possible with ECP basis!
  ===> : Switching to HCORE guess!

INFO   : the flag for use of the SHARK integral package has been found!

================================================================================
                                       INPUT FILE
================================================================================
NAME = 2_9_orca.inp
|  1> ! EnGrad PBEh-3c
|  2> %output 
|  3> xyzfile=True 
|  4> end 
|  5> %scf 
|  6> maxiter 250 
|  7> end
|  8> %output
|  9> Print[P_Hirshfeld] = 1
| 10> end
| 11> % maxcore
| 12> 4000
| 13> *xyz 0 1
| 14> Lu   0.02013576  -0.34000359   0.26040154 
| 15> C    0.48766514   0.64080858   2.60912564 
| 16> C    1.55936298  -0.21193139   2.27010957 
| 17> C    2.31142838   0.41493694   1.25494750 
| 18> C    1.68858096   1.63680660   0.94309697 
| 19> C    0.56814056   1.77989582   1.78764043 
| 20> H    2.06634931   2.37300366   0.24432225 
| 21> H   -0.08048906   2.64746434   1.83169901 
| 22> H   -0.24884251   0.46009238   3.37932843 
| 23> H    1.79040845  -1.16321897   2.73205889 
| 24> H    3.22501977   0.04089163   0.82159395 
| 25> C    0.76021007  -0.10633653  -2.29744421 
| 26> C   -0.45191641  -0.82629604  -2.29935439 
| 27> C    1.11465959  -2.08256636  -1.22816019 
| 28> C    1.72815378  -0.88974104  -1.65453114 
| 29> H    0.94665285   0.84259011  -2.79064213 
| 30> C   -0.23439917  -2.05026472  -1.64600334 
| 31> H   -1.37815042  -0.51133267  -2.76624880 
| 32> H    2.77726829  -0.64474089  -1.55743179 
| 33> H    1.61108851  -2.90736138  -0.73117499 
| 34> H   -0.97321671  -2.81647673  -1.47189805 
| 35> C   -1.96447308  -1.42667303   1.12463263 
| 36> H   -2.25321776  -1.13483867   2.14456899 
| 37> H   -1.80761765  -2.51812557   1.18046979 
| 38> H   -2.88663340  -1.31580809   0.53040967 
| 39> C   -2.08114200   2.03852411  -0.93216842 
| 40> H   -2.14366375   1.21970313  -0.17281566 
| 41> H   -0.98192630   2.28397115  -0.99751198 
| 42> H   -2.66511705   2.87834423  -0.53219418 
| 43> H   -2.49176395   1.65325706  -1.88219226 
| 44> *
| 45> 
| 46>                          ****END OF INPUT****
================================================================================

                     *******************************
                     * Energy+Gradient Calculation *
                     *******************************

---------------------------------
CARTESIAN COORDINATES (ANGSTROEM)
---------------------------------
  Lu     0.020136   -0.340004    0.260402
  C      0.487665    0.640809    2.609126
  C      1.559363   -0.211931    2.270110
  C      2.311428    0.414937    1.254948
  C      1.688581    1.636807    0.943097
  C      0.568141    1.779896    1.787640
  H      2.066349    2.373004    0.244322
  H     -0.080489    2.647464    1.831699
  H     -0.248843    0.460092    3.379328
  H      1.790408   -1.163219    2.732059
  H      3.225020    0.040892    0.821594
  C      0.760210   -0.106337   -2.297444
  C     -0.451916   -0.826296   -2.299354
  C      1.114660   -2.082566   -1.228160
  C      1.728154   -0.889741   -1.654531
  H      0.946653    0.842590   -2.790642
  C     -0.234399   -2.050265   -1.646003
  H     -1.378150   -0.511333   -2.766249
  H      2.777268   -0.644741   -1.557432
  H      1.611089   -2.907361   -0.731175
  H     -0.973217   -2.816477   -1.471898
  C     -1.964473   -1.426673    1.124633
  H     -2.253218   -1.134839    2.144569
  H     -1.807618   -2.518126    1.180470
  H     -2.886633   -1.315808    0.530410
  C     -2.081142    2.038524   -0.932168
  H     -2.143664    1.219703   -0.172816
  H     -0.981926    2.283971   -0.997512
  H     -2.665117    2.878344   -0.532194
  H     -2.491764    1.653257   -1.882192

----------------------------
CARTESIAN COORDINATES (A.U.)
----------------------------
  NO LB      ZA    FRAG     MASS         X           Y           Z
   0 Lu   43.0000*   0   174.967    0.038051   -0.642514    0.492088
   1 C     6.0000    0    12.011    0.921554    1.210953    4.930533
   2 C     6.0000    0    12.011    2.946769   -0.400492    4.289885
   3 C     6.0000    0    12.011    4.367967    0.784117    2.371507
   4 C     6.0000    0    12.011    3.190956    3.093116    1.782195
   5 C     6.0000    0    12.011    1.073630    3.363516    3.378151
   6 H     1.0000    0     1.008    3.904834    4.484327    0.461702
   7 H     1.0000    0     1.008   -0.152102    5.002983    3.461409
   8 H     1.0000    0     1.008   -0.470244    0.869449    6.386005
   9 H     1.0000    0     1.008    3.383382   -2.198165    5.162843
  10 H     1.0000    0     1.008    6.094404    0.077274    1.552588
  11 C     6.0000    0    12.011    1.436589   -0.200947   -4.341540
  12 C     6.0000    0    12.011   -0.853998   -1.561473   -4.345150
  13 C     6.0000    0    12.011    2.106401   -3.935480   -2.320886
  14 C     6.0000    0    12.011    3.265737   -1.681367   -3.126611
  15 H     1.0000    0     1.008    1.788915    1.592265   -5.273549
  16 C     6.0000    0    12.011   -0.442950   -3.874439   -3.110496
  17 H     1.0000    0     1.008   -2.604327   -0.966279   -5.227453
  18 H     1.0000    0     1.008    5.248276   -1.218384   -2.943120
  19 H     1.0000    0     1.008    3.044516   -5.494117   -1.381720
  20 H     1.0000    0     1.008   -1.839113   -5.322370   -2.781484
  21 C     6.0000    0    12.011   -3.712316   -2.696021    2.125248
  22 H     1.0000    0     1.008   -4.257964   -2.144534    4.052648
  23 H     1.0000    0     1.008   -3.415902   -4.758568    2.230765
  24 H     1.0000    0     1.008   -5.454947   -2.486517    1.002329
  25 C     6.0000    0    12.011   -3.932788    3.852252   -1.761543
  26 H     1.0000    0     1.008   -4.050937    2.304905   -0.326574
  27 H     1.0000    0     1.008   -1.855572    4.316080   -1.885024
  28 H     1.0000    0     1.008   -5.036341    5.439282   -1.005701
  29 H     1.0000    0     1.008   -4.708751    3.124203   -3.556828
* core charge reduced due to ECP

--------------------------------
INTERNAL COORDINATES (ANGSTROEM)
--------------------------------
 Lu     0   0   0     0.000000000000     0.00000000     0.00000000
 C      1   0   0     2.587871931125     0.00000000     0.00000000
 C      2   1   0     1.410898158059    71.94566545     0.00000000
 C      3   2   1     1.410361761181   108.02063959    71.11735626
 C      4   3   2     1.406469028344   108.03440754   358.56787748
 C      2   1   3     1.406710341116    77.71491655   113.57700470
 H      5   4   3     1.083042541512   125.38887450   175.93929658
 H      6   2   1     1.084129456895   126.15984240   116.95842747
 H      2   1   3     1.080885840954   117.40318636   238.17505871
 H      3   2   1     1.082463506691   126.20946711   248.92227956
 H      4   3   2     1.078125419936   125.94284263   176.37600203
 C      1   2   3     2.672991799472   141.75219020   284.16283848
 C     12   1   2     1.409821246947    73.65670676   195.98017384
 C     12   1   2     2.274749902437    61.14325919   117.87624862
 C     12   1   2     1.401418876565    72.74457278    80.62321495
 H     12   1   2     1.085572137911   123.96700398   319.21855132
 C     13  12   1     1.404379106173   108.13610841   295.38213542
 H     13  12   1     1.084021104874   125.93263368   118.11169293
 H     15  12   1     1.081709116335   125.76377836   240.99069275
 H     14  12   1     1.083384874663   161.52088800   253.44901293
 H     17  13  12     1.078538294956   126.02624568   179.01033473
 C      1   2   3     2.422068970232    89.66947051   117.24026582
 H     22   1   2     1.099459395501   115.28426568     9.16798030
 H     22   1   2     1.104078829355   110.19147842   251.02977984
 H     22   1   2     1.102620341230   116.60749884   132.55692184
 C     18  13  12     3.218667053357    99.86742886   293.50159362
 H     26  18  13     1.118478153846    79.57832511   296.10518500
 H     26  18  13     1.128179589163    85.78758260    41.86154434
 H     26  18  13     1.098318754116   158.34115901   187.68472056
 H     26  18  13     1.104348849868    46.73610600   169.02293249

---------------------------
INTERNAL COORDINATES (A.U.)
---------------------------
 Lu     0   0   0     0.000000000000     0.00000000     0.00000000
 C      1   0   0     4.890369219488     0.00000000     0.00000000
 C      2   1   0     2.666211121586    71.94566545     0.00000000
 C      3   2   1     2.665197478386   108.02063959    71.11735626
 C      4   3   2     2.657841279412   108.03440754   358.56787748
 C      2   1   3     2.658297294465    77.71491655   113.57700470
 H      5   4   3     2.046653794844   125.38887450   175.93929658
 H      6   2   1     2.048707767249   126.15984240   116.95842747
 H      2   1   3     2.042578221436   117.40318636   238.17505871
 H      3   2   1     2.045559577610   126.20946711   248.92227956
 H      4   3   2     2.037361781698   125.94284263   176.37600203
 C      1   2   3     5.051222459219   141.75219020   284.16283848
 C     12   1   2     2.664176054514    73.65670676   195.98017384
 C     12   1   2     4.298654338770    61.14325919   117.87624862
 C     12   1   2     2.648297875616    72.74457278    80.62321495
 H     12   1   2     2.051434039267   123.96700398   319.21855132
 C     13  12   1     2.653891898867   108.13610841   295.38213542
 H     13  12   1     2.048503011602   125.93263368   118.11169293
 H     15  12   1     2.044133986440   125.76377836   240.99069275
 H     14  12   1     2.047300710745   161.52088800   253.44901293
 H     17  13  12     2.038142002413   126.02624568   179.01033473
 C      1   2   3     4.577047031206    89.66947051   117.24026582
 H     22   1   2     2.077677152863   115.28426568     9.16798030
 H     22   1   2     2.086406617741   110.19147842   251.02977984
 H     22   1   2     2.083650474616   116.60749884   132.55692184
 C     18  13  12     6.082399247119    99.86742886   293.50159362
 H     26  18  13     2.113617397543    79.57832511   296.10518500
 H     26  18  13     2.131950453398    85.78758260    41.86154434
 H     26  18  13     2.075521653029   158.34115901   187.68472056
 H     26  18  13     2.086916882562    46.73610600   169.02293249

---------------------
BASIS SET INFORMATION
---------------------
There are 3 groups of distinct atoms

 Group   1 Type Lu  : 14s13p9d7f1g contracted to 10s7p4d3f1g pattern {5111111111/5311111/6111/511/1}
 Group   2 Type C   : 8s4p1d contracted to 4s2p1d pattern {5111/31/1}
 Group   3 Type H   : 4s contracted to 2s pattern {31}

Atom   0Lu   basis set group =>   1
Atom   1C    basis set group =>   2
Atom   2C    basis set group =>   2
Atom   3C    basis set group =>   2
Atom   4C    basis set group =>   2
Atom   5C    basis set group =>   2
Atom   6H    basis set group =>   3
Atom   7H    basis set group =>   3
Atom   8H    basis set group =>   3
Atom   9H    basis set group =>   3
Atom  10H    basis set group =>   3
Atom  11C    basis set group =>   2
Atom  12C    basis set group =>   2
Atom  13C    basis set group =>   2
Atom  14C    basis set group =>   2
Atom  15H    basis set group =>   3
Atom  16C    basis set group =>   2
Atom  17H    basis set group =>   3
Atom  18H    basis set group =>   3
Atom  19H    basis set group =>   3
Atom  20H    basis set group =>   3
Atom  21C    basis set group =>   2
Atom  22H    basis set group =>   3
Atom  23H    basis set group =>   3
Atom  24H    basis set group =>   3
Atom  25C    basis set group =>   2
Atom  26H    basis set group =>   3
Atom  27H    basis set group =>   3
Atom  28H    basis set group =>   3
Atom  29H    basis set group =>   3
---------------------------------
AUXILIARY/J BASIS SET INFORMATION
---------------------------------
There are 3 groups of distinct atoms

 Group   1 Type Lu  : 18s7p6d6f6g3h5i contracted to 14s7p6d6f5g2h2i pattern {51111111111111/1111111/111111/111111/21111/21/41}
 Group   2 Type C   : 12s5p4d2f1g contracted to 6s4p3d1f1g pattern {711111/2111/211/2/1}
 Group   3 Type H   : 5s2p1d contracted to 3s1p1d pattern {311/2/1}

Atom   0Lu   basis set group =>   1
Atom   1C    basis set group =>   2
Atom   2C    basis set group =>   2
Atom   3C    basis set group =>   2
Atom   4C    basis set group =>   2
Atom   5C    basis set group =>   2
Atom   6H    basis set group =>   3
Atom   7H    basis set group =>   3
Atom   8H    basis set group =>   3
Atom   9H    basis set group =>   3
Atom  10H    basis set group =>   3
Atom  11C    basis set group =>   2
Atom  12C    basis set group =>   2
Atom  13C    basis set group =>   2
Atom  14C    basis set group =>   2
Atom  15H    basis set group =>   3
Atom  16C    basis set group =>   2
Atom  17H    basis set group =>   3
Atom  18H    basis set group =>   3
Atom  19H    basis set group =>   3
Atom  20H    basis set group =>   3
Atom  21C    basis set group =>   2
Atom  22H    basis set group =>   3
Atom  23H    basis set group =>   3
Atom  24H    basis set group =>   3
Atom  25C    basis set group =>   2
Atom  26H    basis set group =>   3
Atom  27H    basis set group =>   3
Atom  28H    basis set group =>   3
Atom  29H    basis set group =>   3
-------------------------
ECP PARAMETER INFORMATION
-------------------------

 Group 1, Type Lu ECP Def2-ECP (replacing 28 core electrons, lmax=5)

Atom   0Lu   ECP group =>   1

------------------------------------------------------------------------------
                           ORCA GTO INTEGRAL CALCULATION
                           -- RI-GTO INTEGRALS CHOSEN --
------------------------------------------------------------------------------
------------------------------------------------------------------------------
                   ___                                                        
                  /   \      - P O W E R E D   B Y -                         
                 /     \                                                     
                 |  |  |   _    _      __       _____    __    __             
                 |  |  |  | |  | |    /  \     |  _  \  |  |  /  |          
                  \  \/   | |  | |   /    \    | | | |  |  | /  /          
                 / \  \   | |__| |  /  /\  \   | |_| |  |  |/  /          
                |  |  |   |  __  | /  /__\  \  |    /   |      \           
                |  |  |   | |  | | |   __   |  |    \   |  |\   \          
                \     /   | |  | | |  |  |  |  | |\  \  |  | \   \       
                 \___/    |_|  |_| |__|  |__|  |_| \__\ |__|  \__/        
                                                                              
                      - O R C A' S   B I G   F R I E N D -                    
                                      &                                       
                       - I N T E G R A L  F E E D E R -                       
                                                                              
 v1 FN, 2020, v2 2021                                                         
------------------------------------------------------------------------------


Reading SHARK input file 2_9_orca.SHARKINP.tmp ... ok
----------------------
SHARK INTEGRAL PACKAGE
----------------------

Number of atoms                             ...     30
Number of basis functions                   ...    295
Number of shells                            ...    143
Maximum angular momentum                    ...      4
Integral batch strategy                     ... SHARK/LIBINT Hybrid
RI-J (if used) integral strategy            ... SPLIT-RIJ (Revised 2003 algorithm where possible)
Printlevel                                  ...      1
Contraction scheme used                     ... SEGMENTED contraction
Coulomb Range Separation                    ... NOT USED
Exchange Range Separation                   ... NOT USED
Finite Nucleus Model                        ... NOT USED
Auxiliary Coulomb fitting basis             ... AVAILABLE
   # of basis functions in Aux-J            ...    975
   # of shells in Aux-J                     ...    307
   Maximum angular momentum in Aux-J        ...      6
Auxiliary J/K fitting basis                 ... NOT available
Auxiliary Correlation fitting basis         ... NOT available
Auxiliary 'external' fitting basis          ... NOT available
Integral threshold                          ...     2.500000e-11
Primitive cut-off                           ...     2.500000e-12
Primitive pair pre-selection threshold      ...     2.500000e-12

Calculating pre-screening integrals         ... done (  0.2 sec) Dimension = 143
Organizing shell pair data                  ... done (  0.1 sec)
Shell pair information
Total number of shell pairs                 ...     10296
Shell pairs after pre-screening             ...      8743
Total number of primitive shell pairs       ...     36301
Primitive shell pairs kept                  ...     20277
          la=0 lb=0:   3329 shell pairs
          la=1 lb=0:   2593 shell pairs
          la=1 lb=1:    496 shell pairs
          la=2 lb=0:   1172 shell pairs
          la=2 lb=1:    490 shell pairs
          la=2 lb=2:    124 shell pairs
          la=3 lb=0:    249 shell pairs
          la=3 lb=1:     93 shell pairs
          la=3 lb=2:     48 shell pairs
          la=3 lb=3:      6 shell pairs
          la=4 lb=0:     92 shell pairs
          la=4 lb=1:     31 shell pairs
          la=4 lb=2:     16 shell pairs
          la=4 lb=3:      3 shell pairs
          la=4 lb=4:      1 shell pairs

Calculating one electron integrals          ... done (  0.1 sec)
Calculating ECP integrals                   ... done (  0.7 sec)
Calculating RI/J V-Matrix + Cholesky decomp.... done (  0.1 sec)
Calculating Nuclear repulsion               ... done (  0.0 sec) ENN=   1376.872913588394 Eh

SHARK setup successfully completed in   1.6 seconds

Maximum memory used throughout the entire GTOINT-calculation: 133.3 MB
-------------------------------------------------------------------------------
                                 ORCA SCF
-------------------------------------------------------------------------------

------------
SCF SETTINGS
------------
Hamiltonian:
 Density Functional     Method          .... DFT(GTOs)
 Exchange Functional    Exchange        .... PBE
   PBE kappa parameter   XKappa         ....  1.024500
   PBE mue parameter    XMuePBE         ....  0.123457
 Correlation Functional Correlation     .... PBE
   PBE beta parameter  CBetaPBE         ....  0.030000
 LDA part of GGA corr.  LDAOpt          .... PW91-LDA
 Gradients option       PostSCFGGA      .... off
 Hybrid DFT is turned on
   Fraction HF Exchange ScalHFX         ....  0.420000
   Scaling of DF-GGA-X  ScalDFX         ....  0.580000
   Scaling of DF-GGA-C  ScalDFC         ....  1.000000
   Scaling of DF-LDA-C  ScalLDAC        ....  1.000000
   Perturbative correction              ....  0.000000
   Density functional embedding theory  .... OFF
 RI-approximation to the Coulomb term is turned on
   Number of AuxJ basis functions       .... 975
   RIJ-ON(X) (HFX calculated with O(N)) .... on
   Number of AuxJ basis functions       .... 975
   RIJ-COSX (HFX calculated with COS-X)).... on


General Settings:
 Integral files         IntName         .... 2_9_orca
 Hartree-Fock type      HFTyp           .... RHF
 Total Charge           Charge          ....    0
 Multiplicity           Mult            ....    1
 Number of Electrons    NEL             ....  132
 Basis Dimension        Dim             ....  295
 Nuclear Repulsion      ENuc            ....   1376.8729135884 Eh

Convergence Acceleration:
 DIIS                   CNVDIIS         .... on
   Start iteration      DIISMaxIt       ....    12
   Startup error        DIISStart       ....  0.200000
   # of expansion vecs  DIISMaxEq       ....     5
   Bias factor          DIISBfac        ....   1.050
   Max. coefficient     DIISMaxC        ....  10.000
 Trust-Rad. Augm. Hess. CNVTRAH         .... auto
   Auto Start mean grad. ratio tolernc. ....  1.125000
   Auto Start start iteration           ....    20
   Auto Start num. interpolation iter.  ....    10
   Max. Number of Micro iterations      ....    16
   Max. Number of Macro iterations      .... Maxiter - #DIIS iter
   Number of Davidson start vectors     ....     2
   Converg. threshold I  (grad. norm)   ....   1.000e-05
   Converg. threshold II (energy diff.) ....   1.000e-08
   Grad. Scal. Fac. for Micro threshold ....   0.100
   Minimum threshold for Micro iter.    ....   0.010
   NR start threshold (gradient norm)   ....   0.001
   Initial trust radius                 ....   0.400
   Minimum AH scaling param. (alpha)    ....   1.000
   Maximum AH scaling param. (alpha)    .... 1000.000
   Orbital update algorithm             .... Taylor
   White noise on init. David. guess    .... on
   Maximum white noise                  ....   0.010
   Quad. conv. algorithm                .... NR
   COSX micro iterations for RIJONX calc.... off
 SOSCF                  CNVSOSCF        .... off
 Level Shifting         CNVShift        .... on
   Level shift para.    LevelShift      ....    0.2500
   Turn off err/grad.   ShiftErr        ....    0.0010
 Zerner damping         CNVZerner       .... off
 Static damping         CNVDamp         .... on
   Fraction old density DampFac         ....    0.7000
   Max. Damping (<1)    DampMax         ....    0.9800
   Min. Damping (>=0)   DampMin         ....    0.0000
   Turn off err/grad.   DampErr         ....    0.1000
 Fernandez-Rico         CNVRico         .... off

SCF Procedure:
 Maximum # iterations   MaxIter         ....   250
 SCF integral mode      SCFMode         .... Direct
   Integral package                     .... SHARK and LIBINT hybrid scheme
 Reset frequency        DirectResetFreq ....    20
 Integral Threshold     Thresh          ....  2.500e-11 Eh
 Primitive CutOff       TCut            ....  2.500e-12 Eh

Convergence Tolerance:
 Convergence Check Mode ConvCheckMode   .... Total+1el-Energy
 Convergence forced     ConvForced      .... 0
 Energy Change          TolE            ....  1.000e-08 Eh
 1-El. energy change                    ....  1.000e-05 Eh
 DIIS Error             TolErr          ....  5.000e-07


Diagonalization of the overlap matrix:
Smallest eigenvalue                        ... 1.306e-03
Time for diagonalization                   ...    0.032 sec
Threshold for overlap eigenvalues          ... 1.000e-08
Number of eigenvalues below threshold      ... 0
Time for construction of square roots      ...    0.016 sec
Total time needed                          ...    0.049 sec

--------------------
INITIAL GUESS: HCORE
--------------------
                      -----------------
                      INTIAL GUESS DONE 
                      -----------------
-------------------
DFT GRID GENERATION
-------------------

General Integration Accuracy     IntAcc      ... 4.159
Radial Grid Type                 RadialGrid  ... OptM3 with GC (2021)
Angular Grid (max. ang.)         AngularGrid ... 3 (Lebedev-194)
Angular grid pruning method      GridPruning ... 4 (adaptive)
Weight generation scheme         WeightScheme... Becke
Basis function cutoff            BFCut       ... 1.0000e-11
Integration weight cutoff        WCut        ... 1.0000e-14
Angular grids for H and He will be reduced by one unit
Partially contracted basis set               ... off
Rotationally invariant grid construction     ... off

Total number of grid points                  ...    67259
Total number of batches                      ...     1070
Average number of points per batch           ...       62
Average number of grid points per atom       ...     2242
Time for grid setup =    1.285 sec

--------------------
COSX GRID GENERATION
--------------------

GRIDX 1
-------
General Integration Accuracy     IntAcc      ... 3.816
Radial Grid Type                 RadialGrid  ... OptM3 with GC (2021)
Angular Grid (max. ang.)         AngularGrid ... 1 (Lebedev-50)
Angular grid pruning method      GridPruning ... 4 (adaptive)
Weight generation scheme         WeightScheme... Becke
Basis function cutoff            BFCut       ... 1.0000e-11
Integration weight cutoff        WCut        ... 1.0000e-14
Angular grids for H and He will be reduced by one unit
Partially contracted basis set               ... on
Rotationally invariant grid construction     ... off

Total number of grid points                  ...    17101
Total number of batches                      ...      281
Average number of points per batch           ...       60
Average number of grid points per atom       ...      570
UseSFitting                                  ... on

GRIDX 2
-------
General Integration Accuracy     IntAcc      ... 4.020
Radial Grid Type                 RadialGrid  ... OptM3 with GC (2021)
Angular Grid (max. ang.)         AngularGrid ... 2 (Lebedev-110)
Angular grid pruning method      GridPruning ... 4 (adaptive)
Weight generation scheme         WeightScheme... Becke
Basis function cutoff            BFCut       ... 1.0000e-11
Integration weight cutoff        WCut        ... 1.0000e-14
Angular grids for H and He will be reduced by one unit
Partially contracted basis set               ... on
Rotationally invariant grid construction     ... off

Total number of grid points                  ...    36770
Total number of batches                      ...      590
Average number of points per batch           ...       62
Average number of grid points per atom       ...     1226
UseSFitting                                  ... on

GRIDX 3
-------
General Integration Accuracy     IntAcc      ... 4.338
Radial Grid Type                 RadialGrid  ... OptM3 with GC (2021)
Angular Grid (max. ang.)         AngularGrid ... 3 (Lebedev-194)
Angular grid pruning method      GridPruning ... 4 (adaptive)
Weight generation scheme         WeightScheme... Becke
Basis function cutoff            BFCut       ... 1.0000e-11
Integration weight cutoff        WCut        ... 1.0000e-14
Angular grids for H and He will be reduced by one unit
Partially contracted basis set               ... on
Rotationally invariant grid construction     ... off

Total number of grid points                  ...    78698
Total number of batches                      ...     1245
Average number of points per batch           ...       63
Average number of grid points per atom       ...     2623
UseSFitting                                  ... on

Time for X-Grid setup             =    2.698 sec

--------------
SCF ITERATIONS
--------------
ITER       Energy         Delta-E        Max-DP      RMS-DP      [F,P]     Damp
               ***  Starting incremental Fock matrix formation  ***
  0   -475.9068133113   0.00000000000042.79646156  0.28577832  3.2675201 0.7000
  1  -1257.7675135260-781.86070021474329.79345467  0.19645806  1.5918482 0.7000
  2  -1430.5051883769-172.73767485090020.92459486  0.13518631  0.9377796 0.7000
  3  -1518.0215647116 -87.51637633470214.66613641  0.09589169  0.7637064 0.7000
  4  -1574.7007420178 -56.67917730613410.18379686  0.06760380  0.6859418 0.7000
  5  -1613.0170660285 -38.316324010698 7.09198720  0.04752587  0.6895549 0.7000
  6  -1639.8401177741 -26.823051745597 4.95538321  0.03334379  0.5476374 0.7000
  7  -1658.5921481082 -18.752030334105 3.46645025  0.02336776  0.4095061 0.7000
  8  -1671.7261974469 -13.134049338730 2.42500972  0.01637584  0.3022541 0.7000
  9  -1680.9349004804  -9.208703033517 1.69647908  0.01147963  0.2251256 0.7000
                               ***Turning on DIIS***
 10  -1687.3923650905  -6.457464610073 1.18704869  0.00804958  0.1679820 0.7000
 11  -1691.9197284451  -4.527363354630 0.83069577  0.00565702  0.1247567 0.7000
 12  -1695.0929469257  -3.173218480525 1.94020258  0.01323347  0.0881600 0.0000
 13  -1702.5130422329  -7.420095307242 0.00567878  0.00010715  0.0035003 0.0000
 14  -1702.5129738443   0.000068388600 0.00224347  0.00004323  0.0048396 0.0000
 15  -1702.5128367673   0.000137076958 0.00131342  0.00002767  0.0034052 0.0000
 16  -1702.5128574677  -0.000020700391 0.00180765  0.00002881  0.0004347 0.0000
               *** Restarting incremental Fock matrix formation ***
                                   *** Resetting DIIS ***
 17  -1702.3961800202   0.116677447515 0.00954293  0.00009079  0.1031858 0.7000
 18  -1702.3980851156  -0.001905095403 0.02294746  0.00027401  0.0722290 0.0000
 19  -1702.4032406782  -0.005155562538 0.00898690  0.00009678  0.0247295 0.0000

 WARNING: the maximum gradient error descreased on average only by a factor   1.0
          during the last 20 iterations

                      *** Initiating the TRAH-SCF procedure ***


TRAH GRIDX
----------

General Integration Accuracy     IntAcc      ... 3.067
Radial Grid Type                 RadialGrid  ... OptM3 with GC (2021)
Angular Grid (max. ang.)         AngularGrid ... 1 (Lebedev-50)
Angular grid pruning method      GridPruning ... 4 (adaptive)
Weight generation scheme         WeightScheme... Becke
Basis function cutoff            BFCut       ... 1.0000e-11
Integration weight cutoff        WCut        ... 1.0000e-14
Angular grids for H and He will be reduced by one unit
Partially contracted basis set               ... on
Rotationally invariant grid construction     ... off

Total number of grid points                  ...     9124
Total number of batches                      ...      160
Average number of points per batch           ...       57
Average number of grid points per atom       ...      304


TRAH GRID
---------

General Integration Accuracy     IntAcc      ... 3.467
Radial Grid Type                 RadialGrid  ... OptM3 with GC (2021)
Angular Grid (max. ang.)         AngularGrid ... 1 (Lebedev-50)
Angular grid pruning method      GridPruning ... 4 (adaptive)
Weight generation scheme         WeightScheme... Becke
Basis function cutoff            BFCut       ... 1.0000e-11
Integration weight cutoff        WCut        ... 1.0000e-14
Angular grids for H and He will be reduced by one unit
Partially contracted basis set               ... off
Rotationally invariant grid construction     ... off

Total number of grid points                  ...    21852
Total number of batches                      ...      359
Average number of points per batch           ...       60
Average number of grid points per atom       ...      728

 --------------------------------------------------------------------------------------------
   Iter.        energy            ||Error||_2        Shift      TRadius  Mac/Mic        Rej.
 --------------------------------------------------------------------------------------------
    0      -1702.403319179435     1.517889e-01                     0.400 (TRAH MAcro)   No
    0     dE    -1.559441e-04     1.149795e-01    -3.1189e-04      0.002 (TRAH MIcro)
    0     dE    -2.095449e-04     1.396846e-02    -4.1908e-04      0.004 (TRAH MIcro)
    0     dE    -2.125589e-04     3.483295e-03    -4.2511e-04      0.004 (TRAH MIcro)
    1      -1702.403531507694     3.166892e-03                     0.480 (TRAH MAcro)   No
    1     dE    -8.708658e-09     5.642046e-03    -1.9597e-08      0.000 (TRAH MIcro)
    1     dE    -3.581053e-07     1.676984e-03    -7.1621e-07      0.000 (TRAH MIcro)
    1     dE    -4.397281e-07     7.806381e-04    -8.7946e-07      0.000 (TRAH MIcro)
    1     dE    -4.457765e-07     3.055007e-04    -8.9155e-07      0.001 (TRAH MIcro)
    2      -1702.403531940032     3.232341e-04                           (NR   MAcro)
    2     dE    -1.150400e-09     1.612714e-04                           (NR   MIcro)
    2     dE    -1.453143e-09     5.267575e-05                           (NR   MIcro)
    2     dE    -1.518946e-09     2.482470e-05                           (NR   MIcro)
    2     dE    -1.528892e-09     9.672288e-06                           (NR   MIcro)
    2     dE    -1.529360e-09     7.446989e-07                           (NR   MIcro)
    3      -1702.403531941409     2.867363e-06                           (NR   MAcro)

               *****************************************************
               *                     SUCCESS                       *
               *           SCF CONVERGED AFTER  36 CYCLES          *
               *****************************************************

Old exchange energy                            =    -54.680205240 Eh
New exchange energy                            =    -54.680256394 Eh
Exchange energy change after final integration =     -0.000051154 Eh
Total energy after final integration           =  -1702.403583095 Eh
Final COS-X integration done in                =    33.744 sec

----------------
TOTAL SCF ENERGY
----------------

Total Energy       :        -1702.40358310 Eh          -46324.75660 eV

Components:
Nuclear Repulsion  :         1376.87291359 Eh           37466.61674 eV
Electronic Energy  :        -3079.27649668 Eh          -83791.37335 eV
One Electron Energy:        -5621.30249852 Eh         -152963.41749 eV
Two Electron Energy:         2542.02600184 Eh           69172.04415 eV
Max COSX asymmetry :            0.00000761 Eh               0.00021 eV

Virial components:
Potential Energy   :        -2969.48252930 Eh          -80803.72760 eV
Kinetic Energy     :         1267.07894621 Eh           34478.97100 eV
Virial Ratio       :            2.34356552


DFT components:
N(Alpha)           :       66.000519487746 electrons
N(Beta)            :       66.000519487746 electrons
N(Total)           :      132.001038975491 electrons
E(X)               :      -74.441606953369 Eh       
E(C)               :       -6.764160452235 Eh       
E(XC)              :      -81.205767405604 Eh       
DFET-embed. en.    :        0.000000000000 Eh       

---------------
SCF CONVERGENCE
---------------

  Last Energy change         ...   -1.3772e-09  Tolerance :   1.0000e-08
  Last Orbital Gradient      ...    2.8674e-06  Tolerance :   1.0000e-05
  Last Orbital Rotation      ...    3.2410e-05

             **** THE GBW FILE WAS UPDATED (2_9_orca.gbw) ****
             **** DENSITY 2_9_orca.scfp WAS UPDATED ****
             **** ENERGY FILE WAS UPDATED (2_9_orca.en.tmp) ****
             **** THE GBW FILE WAS UPDATED (2_9_orca.gbw) ****
             **** DENSITY 2_9_orca.scfp WAS UPDATED ****
----------------
ORBITAL ENERGIES
----------------

  NO   OCC          E(Eh)            E(eV) 
   0   2.0000     -19.252730      -523.8934 
   1   2.0000     -12.625256      -343.5507 
   2   2.0000     -12.622745      -343.4824 
   3   2.0000     -12.622235      -343.4685 
   4   2.0000     -10.454386      -284.4783 
   5   2.0000     -10.448281      -284.3122 
   6   2.0000     -10.446858      -284.2735 
   7   2.0000     -10.446190      -284.2553 
   8   2.0000     -10.445896      -284.2473 
   9   2.0000     -10.445264      -284.2301 
  10   2.0000     -10.444642      -284.2131 
  11   2.0000     -10.444583      -284.2116 
  12   2.0000     -10.443781      -284.1897 
  13   2.0000     -10.442598      -284.1575 
  14   2.0000     -10.441468      -284.1268 
  15   2.0000     -10.363114      -281.9947 
  16   2.0000      -5.894324      -160.3927 
  17   2.0000      -5.893999      -160.3839 
  18   2.0000      -5.893447      -160.3688 
  19   2.0000      -5.891955      -160.3282 
  20   2.0000      -5.891843      -160.3252 
  21   2.0000      -2.436301       -66.2951 
  22   2.0000      -1.274845       -34.6903 
  23   2.0000      -1.274363       -34.6772 
  24   2.0000      -1.262477       -34.3537 
  25   2.0000      -0.981467       -26.7071 
  26   2.0000      -0.972786       -26.4708 
  27   2.0000      -0.799041       -21.7430 
  28   2.0000      -0.795633       -21.6503 
  29   2.0000      -0.794225       -21.6120 
  30   2.0000      -0.791665       -21.5423 
  31   2.0000      -0.791233       -21.5306 
  32   2.0000      -0.696709       -18.9584 
  33   2.0000      -0.615386       -16.7455 
  34   2.0000      -0.613199       -16.6860 
  35   2.0000      -0.610605       -16.6154 
  36   2.0000      -0.608564       -16.5599 
  37   2.0000      -0.597338       -16.2544 
  38   2.0000      -0.591915       -16.1068 
  39   2.0000      -0.562155       -15.2970 
  40   2.0000      -0.560688       -15.2571 
  41   2.0000      -0.560499       -15.2519 
  42   2.0000      -0.559611       -15.2278 
  43   2.0000      -0.558822       -15.2063 
  44   2.0000      -0.557841       -15.1796 
  45   2.0000      -0.555936       -15.1278 
  46   2.0000      -0.481595       -13.1049 
  47   2.0000      -0.475636       -12.9427 
  48   2.0000      -0.462984       -12.5984 
  49   2.0000      -0.460371       -12.5273 
  50   2.0000      -0.454529       -12.3684 
  51   2.0000      -0.452110       -12.3025 
  52   2.0000      -0.450144       -12.2490 
  53   2.0000      -0.449392       -12.2286 
  54   2.0000      -0.435064       -11.8387 
  55   2.0000      -0.432779       -11.7765 
  56   2.0000      -0.431553       -11.7432 
  57   2.0000      -0.430833       -11.7236 
  58   2.0000      -0.429131       -11.6772 
  59   2.0000      -0.388097       -10.5607 
  60   2.0000      -0.387386       -10.5413 
  61   2.0000      -0.293381        -7.9833 
  62   2.0000      -0.286434        -7.7943 
  63   2.0000      -0.280501        -7.6328 
  64   2.0000      -0.264335        -7.1929 
  65   2.0000      -0.256077        -6.9682 
  66   0.0000      -0.017386        -0.4731 
  67   0.0000       0.008594         0.2339 
  68   0.0000       0.042309         1.1513 
  69   0.0000       0.052503         1.4287 
  70   0.0000       0.056074         1.5259 
  71   0.0000       0.060691         1.6515 
  72   0.0000       0.068749         1.8708 
  73   0.0000       0.070556         1.9199 
  74   0.0000       0.094207         2.5635 
  75   0.0000       0.112316         3.0563 
  76   0.0000       0.113282         3.0826 
  77   0.0000       0.133194         3.6244 
  78   0.0000       0.142952         3.8899 
  79   0.0000       0.158083         4.3017 
  80   0.0000       0.166039         4.5181 
  81   0.0000       0.175194         4.7673 
  82   0.0000       0.187051         5.0899 
  83   0.0000       0.193151         5.2559 
  84   0.0000       0.194183         5.2840 
  85   0.0000       0.201307         5.4778 
  86   0.0000       0.213276         5.8035 
  87   0.0000       0.216397         5.8885 
  88   0.0000       0.231212         6.2916 
  89   0.0000       0.232328         6.3220 
  90   0.0000       0.240357         6.5404 
  91   0.0000       0.245667         6.6849 
  92   0.0000       0.249857         6.7989 
  93   0.0000       0.258277         7.0281 
  94   0.0000       0.264271         7.1912 
  95   0.0000       0.266967         7.2645 
  96   0.0000       0.267961         7.2916 
  97   0.0000       0.272386         7.4120 
  98   0.0000       0.278185         7.5698 
  99   0.0000       0.289033         7.8650 
 100   0.0000       0.312826         8.5124 
 101   0.0000       0.323956         8.8153 
 102   0.0000       0.343180         9.3384 
 103   0.0000       0.344791         9.3822 
 104   0.0000       0.353988         9.6325 
 105   0.0000       0.356090         9.6897 
 106   0.0000       0.369687        10.0597 
 107   0.0000       0.373421        10.1613 
 108   0.0000       0.448225        12.1968 
 109   0.0000       0.459987        12.5169 
 110   0.0000       0.474317        12.9068 
 111   0.0000       0.480277        13.0690 
 112   0.0000       0.505662        13.7598 
 113   0.0000       0.512916        13.9572 
 114   0.0000       0.532471        14.4893 
 115   0.0000       0.541017        14.7218 
 116   0.0000       0.551945        15.0192 
 117   0.0000       0.553012        15.0482 
 118   0.0000       0.580656        15.8005 
 119   0.0000       0.594969        16.1899 
 120   0.0000       0.617609        16.8060 
 121   0.0000       0.627303        17.0698 
 122   0.0000       0.639917        17.4130 
 123   0.0000       0.649803        17.6820 
 124   0.0000       0.656587        17.8666 
 125   0.0000       0.660374        17.9697 
 126   0.0000       0.666057        18.1243 
 127   0.0000       0.675214        18.3735 
 128   0.0000       0.691371        18.8132 
 129   0.0000       0.716392        19.4940 
 130   0.0000       0.719631        19.5822 
 131   0.0000       0.731345        19.9009 
 132   0.0000       0.748978        20.3807 
 133   0.0000       0.758181        20.6312 
 134   0.0000       0.766564        20.8593 
 135   0.0000       0.771188        20.9851 
 136   0.0000       0.783444        21.3186 
 137   0.0000       0.797656        21.7053 
 138   0.0000       0.809300        22.0222 
 139   0.0000       0.825349        22.4589 
 140   0.0000       0.835402        22.7324 
 141   0.0000       0.854092        23.2410 
 142   0.0000       0.876141        23.8410 
 143   0.0000       0.880254        23.9529 
 144   0.0000       0.893137        24.3035 
 145   0.0000       0.896956        24.4074 
 146   0.0000       0.912576        24.8325 
 147   0.0000       0.922133        25.0925 
 148   0.0000       0.930074        25.3086 
 149   0.0000       0.938753        25.5448 
 150   0.0000       0.949962        25.8498 
 151   0.0000       0.991018        26.9670 
 152   0.0000       0.997500        27.1433 
 153   0.0000       1.013444        27.5772 
 154   0.0000       1.023746        27.8575 
 155   0.0000       1.031499        28.0685 
 156   0.0000       1.038098        28.2481 
 157   0.0000       1.044344        28.4180 
 158   0.0000       1.060277        28.8516 
 159   0.0000       1.066936        29.0328 
 160   0.0000       1.078637        29.3512 
 161   0.0000       1.081958        29.4416 
 162   0.0000       1.085325        29.5332 
 163   0.0000       1.095743        29.8167 
 164   0.0000       1.112612        30.2757 
 165   0.0000       1.115607        30.3572 
 166   0.0000       1.124254        30.5925 
 167   0.0000       1.133650        30.8482 
 168   0.0000       1.143855        31.1259 
 169   0.0000       1.152008        31.3477 
 170   0.0000       1.164279        31.6816 
 171   0.0000       1.185243        32.2521 
 172   0.0000       1.195297        32.5257 
 173   0.0000       1.214377        33.0449 
 174   0.0000       1.232514        33.5384 
 175   0.0000       1.243440        33.8357 
 176   0.0000       1.252120        34.0719 
 177   0.0000       1.270081        34.5607 
 178   0.0000       1.347782        36.6750 
 179   0.0000       1.384559        37.6758 
 180   0.0000       1.394350        37.9422 
 181   0.0000       1.408111        38.3166 
 182   0.0000       1.412571        38.4380 
 183   0.0000       1.430907        38.9370 
 184   0.0000       1.435208        39.0540 
 185   0.0000       1.446513        39.3616 
 186   0.0000       1.452385        39.5214 
 187   0.0000       1.456418        39.6311 
 188   0.0000       1.472159        40.0595 
 189   0.0000       1.482765        40.3481 
 190   0.0000       1.503963        40.9249 
 191   0.0000       1.602511        43.6065 
 192   0.0000       1.628042        44.3013 
 193   0.0000       1.648017        44.8448 
 194   0.0000       1.667260        45.3684 
 195   0.0000       1.689135        45.9637 
 196   0.0000       1.689689        45.9788 
 197   0.0000       1.731002        47.1030 
 198   0.0000       1.739563        47.3359 
 199   0.0000       1.778698        48.4008 
 200   0.0000       1.790200        48.7138 
 201   0.0000       1.803037        49.0631 
 202   0.0000       1.830508        49.8107 
 203   0.0000       1.895584        51.5815 
 204   0.0000       1.902302        51.7643 
 205   0.0000       1.949755        53.0555 
 206   0.0000       1.954986        53.1979 
 207   0.0000       2.052555        55.8529 
 208   0.0000       2.060731        56.0754 
 209   0.0000       2.066830        56.2413 
 210   0.0000       2.079027        56.5732 
 211   0.0000       2.090641        56.8892 
 212   0.0000       2.097763        57.0830 
 213   0.0000       2.113547        57.5125 
 214   0.0000       2.117778        57.6277 
 215   0.0000       2.155229        58.6468 
 216   0.0000       2.237999        60.8990 
 217   0.0000       2.254565        61.3498 
 218   0.0000       2.262746        61.5725 
 219   0.0000       2.264118        61.6098 
 220   0.0000       2.270965        61.7961 
 221   0.0000       2.275497        61.9194 
 222   0.0000       2.279577        62.0304 
 223   0.0000       2.310635        62.8756 
 224   0.0000       2.344586        63.7994 
 225   0.0000       2.349973        63.9460 
 226   0.0000       2.359985        64.2185 
 227   0.0000       2.366006        64.3823 
 228   0.0000       2.372671        64.5637 
 229   0.0000       2.378878        64.7326 
 230   0.0000       2.386326        64.9352 
 231   0.0000       2.402326        65.3706 
 232   0.0000       2.409653        65.5700 
 233   0.0000       2.426010        66.0151 
 234   0.0000       2.449336        66.6498 
 235   0.0000       2.583501        70.3006 
 236   0.0000       2.588103        70.4259 
 237   0.0000       2.616540        71.1997 
 238   0.0000       2.619977        71.2932 
 239   0.0000       2.628806        71.5334 
 240   0.0000       2.633472        71.6604 
 241   0.0000       2.673729        72.7559 
 242   0.0000       2.686234        73.0961 
 243   0.0000       2.693001        73.2803 
 244   0.0000       2.695754        73.3552 
 245   0.0000       2.707508        73.6750 
 246   0.0000       2.715697        73.8979 
 247   0.0000       2.724278        74.1314 
 248   0.0000       2.724956        74.1498 
 249   0.0000       2.739886        74.5561 
 250   0.0000       2.772072        75.4319 
 251   0.0000       2.775656        75.5294 
 252   0.0000       2.804057        76.3023 
 253   0.0000       2.845169        77.4210 
 254   0.0000       3.010512        81.9202 
 255   0.0000       3.016921        82.0946 
 256   0.0000       3.062798        83.3430 
 257   0.0000       3.068169        83.4891 
 258   0.0000       3.073830        83.6432 
 259   0.0000       3.076280        83.7098 
 260   0.0000       3.430994        93.3621 
 261   0.0000       3.482462        94.7626 
 262   0.0000       3.501664        95.2851 
 263   0.0000       3.616938        98.4219 
 264   0.0000       3.636776        98.9617 
 265   0.0000       3.855411       104.9111 
 266   0.0000       3.877644       105.5161 
 267   0.0000       3.900201       106.1299 
 268   0.0000       3.941337       107.2492 
 269   0.0000       3.968844       107.9977 
 270   0.0000       3.987126       108.4952 
 271   0.0000       4.007661       109.0540 
 272   0.0000      10.954576       298.0892 
 273   0.0000      13.535560       368.3213 
 274   0.0000      13.572207       369.3185 
 275   0.0000      13.631870       370.9420 
 276   0.0000      13.641489       371.2038 
 277   0.0000      13.674585       372.1044 
 278   0.0000      13.703037       372.8786 
 279   0.0000      13.875244       377.5646 
 280   0.0000      14.010231       381.2378 
 281   0.0000      14.057462       382.5230 
 282   0.0000      14.059923       382.5899 
 283   0.0000      14.131082       384.5263 
 284   0.0000      14.313249       389.4833 
 285   0.0000      14.324965       389.8021 
 286   0.0000      14.328860       389.9081 
 287   0.0000      14.354655       390.6100 
 288   0.0000      85.389035      2323.5538 
 289   0.0000      88.253362      2401.4961 
 290   0.0000      88.369621      2404.6597 
 291   0.0000      88.636305      2411.9165 
 292   0.0000      94.765800      2578.7085 
 293   0.0000     357.433440      9726.2584 
 294   0.0000     780.460757     21237.4169 

                    ********************************
                    * MULLIKEN POPULATION ANALYSIS *
                    ********************************

-----------------------
MULLIKEN ATOMIC CHARGES
-----------------------
   0 Lu:    0.823108
   1 C :   -0.267885
   2 C :   -0.331838
   3 C :   -0.260420
   4 C :   -0.289513
   5 C :   -0.286480
   6 H :    0.231971
   7 H :    0.236477
   8 H :    0.247446
   9 H :    0.248366
  10 H :    0.234734
  11 C :   -0.299000
  12 C :   -0.280608
  13 C :   -0.342544
  14 C :   -0.248349
  15 H :    0.232163
  16 C :   -0.247407
  17 H :    0.230504
  18 H :    0.230598
  19 H :    0.243881
  20 H :    0.252729
  21 C :   -1.061498
  22 H :    0.211348
  23 H :    0.209638
  24 H :    0.211157
  25 C :   -0.919141
  26 H :    0.251834
  27 H :    0.231660
  28 H :    0.255981
  29 H :    0.251088
Sum of atomic charges:   -0.0000000

--------------------------------
MULLIKEN REDUCED ORBITAL CHARGES
--------------------------------
  0 Lus       :     4.407184  s :     4.407184
      pz      :     4.171924  p :    12.545641
      px      :     4.197556
      py      :     4.176161
      dz2     :     2.286054  d :    11.182098
      dxz     :     2.290962
      dyz     :     2.212123
      dx2y2   :     2.191515
      dxy     :     2.201444
      f0      :     2.007666  f :    14.039613
      f+1     :     2.007280
      f-1     :     2.005881
      f+2     :     2.008044
      f-2     :     2.004178
      f+3     :     2.002302
      f-3     :     2.004262
      g0      :     0.000328  g :     0.002356
      g+1     :     0.000395
      g-1     :     0.000261
      g+2     :     0.000345
      g-2     :     0.000227
      g+3     :     0.000236
      g-3     :     0.000315
      g+4     :     0.000098
      g-4     :     0.000151
  1 C s       :     3.277366  s :     3.277366
      pz      :     1.031370  p :     2.947819
      px      :     1.007245
      py      :     0.909204
      dz2     :     0.005870  d :     0.042700
      dxz     :     0.009600
      dyz     :     0.009109
      dx2y2   :     0.009842
      dxy     :     0.008279
  2 C s       :     3.294960  s :     3.294960
      pz      :     0.998773  p :     2.993994
      px      :     0.955845
      py      :     1.039376
      dz2     :     0.008860  d :     0.042884
      dxz     :     0.006395
      dyz     :     0.008399
      dx2y2   :     0.010466
      dxy     :     0.008764
  3 C s       :     3.266397  s :     3.266397
      pz      :     0.998411  p :     2.951080
      px      :     1.018597
      py      :     0.934072
      dz2     :     0.007862  d :     0.042943
      dxz     :     0.008663
      dyz     :     0.006948
      dx2y2   :     0.008617
      dxy     :     0.010852
  4 C s       :     3.269389  s :     3.269389
      pz      :     1.033295  p :     2.978109
      px      :     0.956632
      py      :     0.988182
      dz2     :     0.005428  d :     0.042016
      dxz     :     0.007717
      dyz     :     0.010198
      dx2y2   :     0.010444
      dxy     :     0.008229
  5 C s       :     3.270678  s :     3.270678
      pz      :     0.965255  p :     2.973276
      px      :     0.998176
      py      :     1.009845
      dz2     :     0.009930  d :     0.042525
      dxz     :     0.006017
      dyz     :     0.007167
      dx2y2   :     0.007868
      dxy     :     0.011544
  6 H s       :     0.768029  s :     0.768029
  7 H s       :     0.763523  s :     0.763523
  8 H s       :     0.752554  s :     0.752554
  9 H s       :     0.751634  s :     0.751634
 10 H s       :     0.765266  s :     0.765266
 11 C s       :     3.268532  s :     3.268532
      pz      :     1.034257  p :     2.988145
      px      :     0.909415
      py      :     1.044473
      dz2     :     0.005149  d :     0.042322
      dxz     :     0.008377
      dyz     :     0.006367
      dx2y2   :     0.010925
      dxy     :     0.011504
 12 C s       :     3.271989  s :     3.271989
      pz      :     1.026381  p :     2.965990
      px      :     1.000957
      py      :     0.938652
      dz2     :     0.005357  d :     0.042629
      dxz     :     0.007262
      dyz     :     0.007237
      dx2y2   :     0.012057
      dxy     :     0.010716
 13 C s       :     3.292682  s :     3.292682
      pz      :     1.050830  p :     3.007114
      px      :     0.941806
      py      :     1.014479
      dz2     :     0.003141  d :     0.042748
      dxz     :     0.008883
      dyz     :     0.008003
      dx2y2   :     0.011630
      dxy     :     0.011091
 14 C s       :     3.261482  s :     3.261482
      pz      :     0.992498  p :     2.943631
      px      :     1.019612
      py      :     0.931520
      dz2     :     0.007121  d :     0.043236
      dxz     :     0.006141
      dyz     :     0.006239
      dx2y2   :     0.012209
      dxy     :     0.011526
 15 H s       :     0.767837  s :     0.767837
 16 C s       :     3.273794  s :     3.273794
      pz      :     0.983689  p :     2.930552
      px      :     0.958115
      py      :     0.988748
      dz2     :     0.006773  d :     0.043062
      dxz     :     0.006831
      dyz     :     0.006066
      dx2y2   :     0.010754
      dxy     :     0.012638
 17 H s       :     0.769496  s :     0.769496
 18 H s       :     0.769402  s :     0.769402
 19 H s       :     0.756119  s :     0.756119
 20 H s       :     0.747271  s :     0.747271
 21 C s       :     3.478915  s :     3.478915
      pz      :     1.124678  p :     3.558315
      px      :     1.273919
      py      :     1.159718
      dz2     :     0.007217  d :     0.024267
      dxz     :     0.006633
      dyz     :     0.001105
      dx2y2   :     0.008931
      dxy     :     0.000381
 22 H s       :     0.788652  s :     0.788652
 23 H s       :     0.790362  s :     0.790362
 24 H s       :     0.788843  s :     0.788843
 25 C s       :     3.490898  s :     3.490898
      pz      :     1.139961  p :     3.398770
      px      :     1.119860
      py      :     1.138949
      dz2     :     0.005239  d :     0.029472
      dxz     :     0.003139
      dyz     :     0.009682
      dx2y2   :     0.006755
      dxy     :     0.004657
 26 H s       :     0.748166  s :     0.748166
 27 H s       :     0.768340  s :     0.768340
 28 H s       :     0.744019  s :     0.744019
 29 H s       :     0.748912  s :     0.748912


                     *******************************
                     * LOEWDIN POPULATION ANALYSIS *
                     *******************************

----------------------
LOEWDIN ATOMIC CHARGES
----------------------
   0 Lu:    0.001953
   1 C :   -0.133505
   2 C :   -0.151151
   3 C :   -0.131575
   4 C :   -0.146624
   5 C :   -0.145124
   6 H :    0.151562
   7 H :    0.152433
   8 H :    0.160574
   9 H :    0.159438
  10 H :    0.151958
  11 C :   -0.150771
  12 C :   -0.141293
  13 C :   -0.155685
  14 C :   -0.126785
  15 H :    0.150943
  16 C :   -0.125824
  17 H :    0.151615
  18 H :    0.150678
  19 H :    0.157699
  20 H :    0.162142
  21 C :   -0.652413
  22 H :    0.127997
  23 H :    0.134394
  24 H :    0.131007
  25 C :   -0.484184
  26 H :    0.161163
  27 H :    0.148125
  28 H :    0.145503
  29 H :    0.145753

-------------------------------
LOEWDIN REDUCED ORBITAL CHARGES
-------------------------------
  0 Lus       :     4.346820  s :     4.346820
      pz      :     4.296035  p :    12.911789
      px      :     4.334472
      py      :     4.281282
      dz2     :     2.389807  d :    11.647981
      dxz     :     2.399046
      dyz     :     2.299299
      dx2y2   :     2.272822
      dxy     :     2.287008
      f0      :     2.016584  f :    14.086589
      f+1     :     2.015680
      f-1     :     2.012125
      f+2     :     2.017638
      f-2     :     2.008774
      f+3     :     2.005983
      f-3     :     2.009807
      g0      :     0.000669  g :     0.004868
      g+1     :     0.000792
      g-1     :     0.000531
      g+2     :     0.000721
      g-2     :     0.000443
      g+3     :     0.000494
      g-3     :     0.000650
      g+4     :     0.000212
      g-4     :     0.000356
  1 C s       :     2.870437  s :     2.870437
      pz      :     1.054338  p :     3.168763
      px      :     1.065429
      py      :     1.048996
      dz2     :     0.012112  d :     0.094304
      dxz     :     0.017865
      dyz     :     0.021452
      dx2y2   :     0.022576
      dxy     :     0.020301
  2 C s       :     2.867653  s :     2.867653
      pz      :     1.056035  p :     3.189176
      px      :     1.056763
      py      :     1.076377
      dz2     :     0.018173  d :     0.094322
      dxz     :     0.015962
      dyz     :     0.017858
      dx2y2   :     0.021014
      dxy     :     0.021316
  3 C s       :     2.870393  s :     2.870393
      pz      :     1.056788  p :     3.166478
      px      :     1.053816
      py      :     1.055875
      dz2     :     0.017085  d :     0.094704
      dxz     :     0.017613
      dyz     :     0.016354
      dx2y2   :     0.019406
      dxy     :     0.024245
  4 C s       :     2.873472  s :     2.873472
      pz      :     1.067122  p :     3.179814
      px      :     1.053825
      py      :     1.058866
      dz2     :     0.010904  d :     0.093339
      dxz     :     0.017793
      dyz     :     0.020216
      dx2y2   :     0.024256
      dxy     :     0.020171
  5 C s       :     2.875336  s :     2.875336
      pz      :     1.050900  p :     3.175907
      px      :     1.064581
      py      :     1.060427
      dz2     :     0.020414  d :     0.093881
      dxz     :     0.014668
      dyz     :     0.017593
      dx2y2   :     0.018484
      dxy     :     0.022722
  6 H s       :     0.848438  s :     0.848438
  7 H s       :     0.847567  s :     0.847567
  8 H s       :     0.839426  s :     0.839426
  9 H s       :     0.840562  s :     0.840562
 10 H s       :     0.848042  s :     0.848042
 11 C s       :     2.872397  s :     2.872397
      pz      :     1.042206  p :     3.184249
      px      :     1.062913
      py      :     1.079130
      dz2     :     0.010182  d :     0.094125
      dxz     :     0.018953
      dyz     :     0.011439
      dx2y2   :     0.024480
      dxy     :     0.029073
 12 C s       :     2.872932  s :     2.872932
      pz      :     1.037830  p :     3.174132
      px      :     1.072909
      py      :     1.063393
      dz2     :     0.010370  d :     0.094229
      dxz     :     0.013760
      dyz     :     0.016035
      dx2y2   :     0.028350
      dxy     :     0.025714
 13 C s       :     2.866652  s :     2.866652
      pz      :     1.070957  p :     3.194864
      px      :     1.060194
      py      :     1.063712
      dz2     :     0.005585  d :     0.094170
      dxz     :     0.019113
      dyz     :     0.015034
      dx2y2   :     0.028168
      dxy     :     0.026271
 14 C s       :     2.869639  s :     2.869639
      pz      :     1.029046  p :     3.161469
      px      :     1.072097
      py      :     1.060325
      dz2     :     0.013665  d :     0.095678
      dxz     :     0.012677
      dyz     :     0.014366
      dx2y2   :     0.027284
      dxy     :     0.027687
 15 H s       :     0.849057  s :     0.849057
 16 C s       :     2.869908  s :     2.869908
      pz      :     1.031389  p :     3.161127
      px      :     1.065454
      py      :     1.064283
      dz2     :     0.013111  d :     0.094790
      dxz     :     0.014373
      dyz     :     0.013364
      dx2y2   :     0.026975
      dxy     :     0.026965
 17 H s       :     0.848385  s :     0.848385
 18 H s       :     0.849322  s :     0.849322
 19 H s       :     0.842301  s :     0.842301
 20 H s       :     0.837858  s :     0.837858
 21 C s       :     3.018770  s :     3.018770
      pz      :     1.142353  p :     3.594405
      px      :     1.277366
      py      :     1.174686
      dz2     :     0.011553  d :     0.039238
      dxz     :     0.010618
      dyz     :     0.002115
      dx2y2   :     0.014005
      dxy     :     0.000948
 22 H s       :     0.872003  s :     0.872003
 23 H s       :     0.865606  s :     0.865606
 24 H s       :     0.868993  s :     0.868993
 25 C s       :     3.011822  s :     3.011822
      pz      :     1.147977  p :     3.425262
      px      :     1.133054
      py      :     1.144232
      dz2     :     0.008566  d :     0.047100
      dxz     :     0.004990
      dyz     :     0.015084
      dx2y2   :     0.010821
      dxy     :     0.007639
 26 H s       :     0.838837  s :     0.838837
 27 H s       :     0.851875  s :     0.851875
 28 H s       :     0.854497  s :     0.854497
 29 H s       :     0.854247  s :     0.854247


                      *****************************
                      * MAYER POPULATION ANALYSIS *
                      *****************************

  NA   - Mulliken gross atomic population
  ZA   - Total nuclear charge
  QA   - Mulliken gross atomic charge
  VA   - Mayer's total valence
  BVA  - Mayer's bonded valence
  FA   - Mayer's free valence

  ATOM       NA         ZA         QA         VA         BVA        FA
  0 Lu    42.1769    43.0000     0.8231     3.6744     3.6744     0.0000
  1 C      6.2679     6.0000    -0.2679     3.7734     3.7734    -0.0000
  2 C      6.3318     6.0000    -0.3318     3.7790     3.7790     0.0000
  3 C      6.2604     6.0000    -0.2604     3.7721     3.7721     0.0000
  4 C      6.2895     6.0000    -0.2895     3.7829     3.7829    -0.0000
  5 C      6.2865     6.0000    -0.2865     3.7718     3.7718     0.0000
  6 H      0.7680     1.0000     0.2320     0.9224     0.9224    -0.0000
  7 H      0.7635     1.0000     0.2365     0.9187     0.9187     0.0000
  8 H      0.7526     1.0000     0.2474     0.9149     0.9149     0.0000
  9 H      0.7516     1.0000     0.2484     0.9113     0.9113     0.0000
 10 H      0.7653     1.0000     0.2347     0.9198     0.9198     0.0000
 11 C      6.2990     6.0000    -0.2990     3.7856     3.7856    -0.0000
 12 C      6.2806     6.0000    -0.2806     3.7801     3.7801    -0.0000
 13 C      6.3425     6.0000    -0.3425     3.7806     3.7806     0.0000
 14 C      6.2483     6.0000    -0.2483     3.7725     3.7725     0.0000
 15 H      0.7678     1.0000     0.2322     0.9217     0.9217    -0.0000
 16 C      6.2474     6.0000    -0.2474     3.7673     3.7673     0.0000
 17 H      0.7695     1.0000     0.2305     0.9227     0.9227    -0.0000
 18 H      0.7694     1.0000     0.2306     0.9224     0.9224    -0.0000
 19 H      0.7561     1.0000     0.2439     0.9151     0.9151     0.0000
 20 H      0.7473     1.0000     0.2527     0.9103     0.9103    -0.0000
 21 C      7.0615     6.0000    -1.0615     3.5705     3.5705    -0.0000
 22 H      0.7887     1.0000     0.2113     0.9118     0.9118     0.0000
 23 H      0.7904     1.0000     0.2096     0.9121     0.9121     0.0000
 24 H      0.7888     1.0000     0.2112     0.9138     0.9138    -0.0000
 25 C      6.9191     6.0000    -0.9191     3.6974     3.6974    -0.0000
 26 H      0.7482     1.0000     0.2518     0.8950     0.8950    -0.0000
 27 H      0.7683     1.0000     0.2317     0.9078     0.9078    -0.0000
 28 H      0.7440     1.0000     0.2560     0.9025     0.9025    -0.0000
 29 H      0.7489     1.0000     0.2511     0.9045     0.9045     0.0000

  Mayer bond orders larger than 0.100000
B(  0-Lu,  1-C ) :   0.2403 B(  0-Lu,  2-C ) :   0.2936 B(  0-Lu,  3-C ) :   0.2530 
B(  0-Lu,  4-C ) :   0.2467 B(  0-Lu,  5-C ) :   0.2587 B(  0-Lu, 11-C ) :   0.2567 
B(  0-Lu, 12-C ) :   0.2540 B(  0-Lu, 13-C ) :   0.3013 B(  0-Lu, 14-C ) :   0.2519 
B(  0-Lu, 16-C ) :   0.2407 B(  0-Lu, 21-C ) :   0.8147 B(  1-C ,  2-C ) :   1.2770 
B(  1-C ,  5-C ) :   1.3056 B(  1-C ,  8-H ) :   0.9139 B(  2-C ,  3-C ) :   1.2804 
B(  2-C ,  9-H ) :   0.9097 B(  3-C ,  4-C ) :   1.3078 B(  3-C , 10-H ) :   0.9169 
B(  4-C ,  5-C ) :   1.2846 B(  4-C ,  6-H ) :   0.9207 B(  5-C ,  7-H ) :   0.9174 
B( 11-C , 12-C ) :   1.2736 B( 11-C , 14-C ) :   1.3133 B( 11-C , 15-H ) :   0.9199 
B( 12-C , 16-C ) :   1.3202 B( 12-C , 17-H ) :   0.9187 B( 13-C , 14-C ) :   1.2761 
B( 13-C , 16-C ) :   1.2707 B( 13-C , 19-H ) :   0.9127 B( 14-C , 18-H ) :   0.9201 
B( 16-C , 20-H ) :   0.9085 B( 21-C , 22-H ) :   0.9116 B( 21-C , 23-H ) :   0.9052 
B( 21-C , 24-H ) :   0.9086 B( 25-C , 26-H ) :   0.8630 B( 25-C , 27-H ) :   0.9006 
B( 25-C , 28-H ) :   0.9111 B( 25-C , 29-H ) :   0.9115 


------------------
HIRSHFELD ANALYSIS
------------------

Total integrated alpha density =     66.000519488
Total integrated beta density  =     66.000519488

  ATOM     CHARGE      SPIN    
   0 Lu   0.455671    0.000000
   1 C   -0.067958    0.000000
   2 C   -0.078501    0.000000
   3 C   -0.070829    0.000000
   4 C   -0.074151    0.000000
   5 C   -0.070321    0.000000
   6 H    0.049176    0.000000
   7 H    0.050012    0.000000
   8 H    0.056383    0.000000
   9 H    0.054047    0.000000
  10 H    0.050027    0.000000
  11 C   -0.075567    0.000000
  12 C   -0.069289    0.000000
  13 C   -0.081712    0.000000
  14 C   -0.068603    0.000000
  15 H    0.048418    0.000000
  16 C   -0.066158    0.000000
  17 H    0.050129    0.000000
  18 H    0.050238    0.000000
  19 H    0.052088    0.000000
  20 H    0.056550    0.000000
  21 C   -0.314837    0.000000
  22 H   -0.006005    0.000000
  23 H   -0.001794    0.000000
  24 H   -0.002242    0.000000
  25 C   -0.092435    0.000000
  26 H    0.037878    0.000000
  27 H    0.037446    0.000000
  28 H    0.046246    0.000000
  29 H    0.045055    0.000000

  TOTAL  -0.001039    0.000000

-------
TIMINGS
-------

Total SCF time: 0 days 0 hours 7 min 19 sec 

Total time                  ....     439.912 sec
Sum of individual times     ....     439.014 sec  ( 99.8%)

Fock matrix formation       ....     433.194 sec  ( 98.5%)
  Split-RI-J                ....      57.160 sec  ( 13.2% of F)
  Chain of spheres X        ....     346.520 sec  ( 80.0% of F)
  XC integration            ....      29.482 sec  (  6.8% of F)
    Basis function eval.    ....       7.720 sec  ( 26.2% of XC)
    Density eval.           ....      10.338 sec  ( 35.1% of XC)
    XC-Functional eval.     ....       1.229 sec  (  4.2% of XC)
    XC-Potential eval.      ....       8.609 sec  ( 29.2% of XC)
Diagonalization             ....       0.588 sec  (  0.1%)
Density matrix formation    ....       0.046 sec  (  0.0%)
Population analysis         ....       0.686 sec  (  0.2%)
Initial guess               ....       0.048 sec  (  0.0%)
Orbital Transformation      ....       0.243 sec  (  0.1%)
Orbital Orthonormalization  ....       0.000 sec  (  0.0%)
DIIS solution               ....       0.226 sec  (  0.1%)
Grid generation             ....       3.983 sec  (  0.9%)

Maximum memory used throughout the entire SCF-calculation: 209.0 MB


-------------------------------------------------------------------------------
                          DFT DISPERSION CORRECTION                            
                                                                               
                              DFTD3 V3.1  Rev 1                                
                          USING Becke-Johnson damping                          
-------------------------------------------------------------------------------
The PBEh-3c composite method is recognized
Using three-body term ABC
Active option DFTDOPT                   ...         4   

molecular C6(AA) [au] = 10149.386175 


            DFT-D V3
 parameters
 s6 scaling factor         :     1.0000 
 a1 scaling factor         :     0.4860 
 s8 scaling factor         :     0.0000 
 a2 scaling factor         :     4.5000 
 Damping factor alpha9(ATM):    16.0000 
 ad hoc parameters k1-k3   :    16.0000     1.3333    -4.0000 

 Edisp/kcal,au: -11.064734503179  -0.017632774930 
 E6   /kcal   : -11.254213398 
 E8   /kcal   :  -0.000000000 
 E6(ABC)      :   0.189478895 
 % E8         :   0.000000000 
 % E6(ABC)    :  -1.712457675 

-------------------------   ----------------
Dispersion correction           -0.017632775
-------------------------   ----------------

 ** NOTE ** -> element lu will be treated as sc
NOTIFICATION: Different basis set in ORCA and otool_gcp:
ORCA: 295  gCP: 245 
If you are NOT using ECPs, check your basis set inputs!
------------------   -----------------
gCP correction             0.034261323
------------------   -----------------

-------------------------   --------------------
FINAL SINGLE POINT ENERGY     -1702.386954547243
-------------------------   --------------------

------------------------------------------------------------------------------
                         ORCA SCF GRADIENT CALCULATION
------------------------------------------------------------------------------

 ... reading COSX grid (gridx3)
Gradient of the Kohn-Sham DFT energy:
Kohn-Sham wavefunction type      ... RKS
Hartree-Fock exchange scaling    ...    0.420
Number of operators              ...    1
Number of atoms                  ...   30
Basis set dimensions             ...  295
Integral neglect threshold       ... 2.5e-11
Integral primitive cutoff        ... 2.5e-12
SHARK Integral package           ... ON

Nuc. rep. gradient       (SHARK) ... done (  0.0 sec)
HCore & Overlap gradient (SHARK) ... done (  0.8 sec)
ECP gradient             (SHARK) ... done (  1.6 sec)
RI-J gradient            (SHARK) ... done (  6.8 sec)
COSX-gradient                    ... done ( 39.7 sec)
Exchange-correlation gradient    ... done
Dispersion correction            ... done
gCP correction                   ... done

------------------
CARTESIAN GRADIENT
------------------

   1   Lu  :    0.003049398   -0.000060655   -0.000681034
   2   C   :    0.002834550    0.001025147   -0.002269909
   3   C   :   -0.002125953    0.001721462   -0.001153728
   4   C   :    0.001433931    0.000674072   -0.001274454
   5   C   :   -0.002569332    0.000659934    0.000893461
   6   C   :    0.004253418   -0.000847908    0.001972281
   7   H   :    0.002692909    0.001927435    0.000099226
   8   H   :   -0.000212485    0.002852610    0.000368685
   9   H   :   -0.000235786    0.000118476    0.001428214
  10   H   :   -0.000063709   -0.001062968   -0.001074964
  11   H   :    0.000028115    0.000951375    0.000977353
  12   C   :   -0.001463702   -0.005966897    0.002094378
  13   C   :    0.005642973   -0.000030172   -0.001277334
  14   C   :   -0.000707976    0.004736222   -0.000706959
  15   C   :   -0.004958189    0.000023540   -0.001010592
  16   H   :    0.001907226    0.002190823   -0.003275149
  17   C   :    0.001274836    0.000897863   -0.001400354
  18   H   :   -0.001838863    0.000704942   -0.002367780
  19   H   :    0.002240350   -0.000536908   -0.001587019
  20   H   :    0.001029154   -0.000735311    0.000653678
  21   H   :    0.000297952    0.000546561    0.000429075
  22   C   :   -0.005505826   -0.002797724    0.000411312
  23   H   :   -0.002335935   -0.000713940    0.002099150
  24   H   :   -0.001130023   -0.003553544    0.000919584
  25   H   :   -0.005314741   -0.001065028    0.000832081
  26   C   :   -0.018066111    0.015702969   -0.013159394
  27   H   :    0.008292156   -0.009780933    0.010159795
  28   H   :    0.025336789   -0.002821844    0.006605477
  29   H   :   -0.007082648    0.004515370    0.005950153
  30   H   :   -0.007297177   -0.007926675   -0.010172841

Difference to translation invariance:
           :   -0.0005947002    0.0013482943   -0.0055176072

Difference to rotation invariance:
           :    0.0023758089    0.0023047989   -0.0036810210

Norm of the cartesian gradient     ...    0.0488622641
RMS gradient                       ...    0.0051505349
MAX gradient                       ...    0.0253367892

-------
TIMINGS
-------

Total SCF gradient time            ...       58.500 sec

One electron gradient       ....       2.428 sec  (  4.2%)
RI-J Coulomb gradient       ....       6.814 sec  ( 11.6%)
COSX gradient               ....      39.713 sec  ( 67.9%)
XC gradient                 ....       7.791 sec  ( 13.3%)

Maximum memory used throughout the entire SCFGRAD-calculation: 207.1 MB

                            ***************************************
                            *     ORCA property calculations      *
                            ***************************************

                                    ---------------------
                                    Active property flags
                                    ---------------------
   (+) Dipole Moment


------------------------------------------------------------------------------
                       ORCA ELECTRIC PROPERTIES CALCULATION
------------------------------------------------------------------------------

Dipole Moment Calculation                       ... on
Quadrupole Moment Calculation                   ... off
Polarizability Calculation                      ... off
GBWName                                         ... 2_9_orca.gbw
Electron density                                ... 2_9_orca.scfp
The origin for moment calculation is the CENTER OF MASS  = ( 0.359027, -0.399582  0.251257)

-------------
DIPOLE MOMENT
-------------
                                X             Y             Z
Electronic contribution:     -5.82343     -14.77236      12.47079
Nuclear contribution   :      6.06808      15.46102     -12.84959
                        -----------------------------------------
Total Dipole Moment    :      0.24465       0.68866      -0.37880
                        -----------------------------------------
Magnitude (a.u.)       :      0.82316
Magnitude (Debye)      :      2.09231



--------------------
Rotational spectrum 
--------------------
 
Rotational constants in cm-1:     0.028370     0.019741     0.017875 
Rotational constants in MHz :   850.496916   591.833988   535.872773 

 Dipole components along the rotational axes: 
x,y,z [a.u.] :     0.050864    -0.032343    -0.820950 
x,y,z [Debye]:     0.129286    -0.082210    -2.086690 

 

Timings for individual modules:

Sum of individual times         ...      500.135 sec (=   8.336 min)
GTO integral calculation        ...        1.652 sec (=   0.028 min)   0.3 %
SCF iterations                  ...      439.940 sec (=   7.332 min)  88.0 %
SCF Gradient evaluation         ...       58.544 sec (=   0.976 min)  11.7 %
                             ****ORCA TERMINATED NORMALLY****
TOTAL RUN TIME: 0 days 0 hours 8 minutes 20 seconds 528 msec
