
                                 *****************
                                 * O   R   C   A *
                                 *****************

                                            #,                                       
                                            ###                                      
                                            ####                                     
                                            #####                                    
                                            ######                                   
                                           ########,                                 
                                     ,,################,,,,,                         
                               ,,#################################,,                 
                          ,,##########################################,,             
                       ,#########################################, ''#####,          
                    ,#############################################,,   '####,        
                  ,##################################################,,,,####,       
                ,###########''''           ''''###############################       
              ,#####''   ,,,,##########,,,,          '''####'''          '####       
            ,##' ,,,,###########################,,,                        '##       
           ' ,,###''''                  '''############,,,                           
         ,,##''                                '''############,,,,        ,,,,,,###''
      ,#''                                            '''#######################'''  
     '                                                          ''''####''''         
             ,#######,   #######,   ,#######,      ##                                
            ,#'     '#,  ##    ##  ,#'     '#,    #''#        ######   ,####,        
            ##       ##  ##   ,#'  ##            #'  '#       #        #'  '#        
            ##       ##  #######   ##           ,######,      #####,   #    #        
            '#,     ,#'  ##    ##  '#,     ,#' ,#      #,         ##   #,  ,#        
             '#######'   ##     ##  '#######'  #'      '#     #####' # '####'        



                  #######################################################
                  #                        -***-                        #
                  #          Department of theory and spectroscopy      #
                  #    Directorship and core code : Frank Neese         #
                  #        Max Planck Institute fuer Kohlenforschung    #
                  #                Kaiser Wilhelm Platz 1               #
                  #                 D-45470 Muelheim/Ruhr               #
                  #                      Germany                        #
                  #                                                     #
                  #                  All rights reserved                #
                  #                        -***-                        #
                  #######################################################


                         Program Version 5.0.3 -  RELEASE  -


 With contributions from (in alphabetic order):
   Daniel Aravena         : Magnetic Suceptibility
   Michael Atanasov       : Ab Initio Ligand Field Theory (pilot matlab implementation)
   Alexander A. Auer      : GIAO ZORA, VPT2 properties, NMR spectrum
   Ute Becker             : Parallelization
   Giovanni Bistoni       : ED, misc. LED, open-shell LED, HFLD
   Martin Brehm           : Molecular dynamics
   Dmytro Bykov           : SCF Hessian
   Vijay G. Chilkuri      : MRCI spin determinant printing, contributions to CSF-ICE
   Dipayan Datta          : RHF DLPNO-CCSD density
   Achintya Kumar Dutta   : EOM-CC, STEOM-CC
   Dmitry Ganyushin       : Spin-Orbit,Spin-Spin,Magnetic field MRCI
   Miquel Garcia          : C-PCM and meta-GGA Hessian, CC/C-PCM, Gaussian charge scheme
   Yang Guo               : DLPNO-NEVPT2, F12-NEVPT2, CIM, IAO-localization
   Andreas Hansen         : Spin unrestricted coupled pair/coupled cluster methods
   Benjamin Helmich-Paris : MC-RPA, TRAH-SCF, COSX integrals
   Lee Huntington         : MR-EOM, pCC
   Robert Izsak           : Overlap fitted RIJCOSX, COSX-SCS-MP3, EOM
   Marcus Kettner         : VPT2
   Christian Kollmar      : KDIIS, OOCD, Brueckner-CCSD(T), CCSD density, CASPT2, CASPT2-K
   Simone Kossmann        : Meta GGA functionals, TD-DFT gradient, OOMP2, MP2 Hessian
   Martin Krupicka        : Initial AUTO-CI
   Lucas Lang             : DCDCAS
   Marvin Lechner         : AUTO-CI (C++ implementation), FIC-MRCC
   Dagmar Lenk            : GEPOL surface, SMD
   Dimitrios Liakos       : Extrapolation schemes; Compound Job, initial MDCI parallelization
   Dimitrios Manganas     : Further ROCIS development; embedding schemes
   Dimitrios Pantazis     : SARC Basis sets
   Anastasios Papadopoulos: AUTO-CI, single reference methods and gradients
   Taras Petrenko         : DFT Hessian,TD-DFT gradient, ASA, ECA, R-Raman, ABS, FL, XAS/XES, NRVS
   Peter Pinski           : DLPNO-MP2, DLPNO-MP2 Gradient
   Christoph Reimann      : Effective Core Potentials
   Marius Retegan         : Local ZFS, SOC
   Christoph Riplinger    : Optimizer, TS searches, QM/MM, DLPNO-CCSD(T), (RO)-DLPNO pert. Triples
   Tobias Risthaus        : Range-separated hybrids, TD-DFT gradient, RPA, STAB
   Michael Roemelt        : Original ROCIS implementation
   Masaaki Saitow         : Open-shell DLPNO-CCSD energy and density
   Barbara Sandhoefer     : DKH picture change effects
   Avijit Sen             : IP-ROCIS
   Kantharuban Sivalingam : CASSCF convergence, NEVPT2, FIC-MRCI
   Bernardo de Souza      : ESD, SOC TD-DFT
   Georgi Stoychev        : AutoAux, RI-MP2 NMR, DLPNO-MP2 response
   Willem Van den Heuvel  : Paramagnetic NMR
   Boris Wezisla          : Elementary symmetry handling
   Frank Wennmohs         : Technical directorship


 We gratefully acknowledge several colleagues who have allowed us to
 interface, adapt or use parts of their codes:
   Stefan Grimme, W. Hujo, H. Kruse, P. Pracht,  : VdW corrections, initial TS optimization,
                  C. Bannwarth, S. Ehlert          DFT functionals, gCP, sTDA/sTD-DF
   Ed Valeev, F. Pavosevic, A. Kumar             : LibInt (2-el integral package), F12 methods
   Garnet Chan, S. Sharma, J. Yang, R. Olivares  : DMRG
   Ulf Ekstrom                                   : XCFun DFT Library
   Mihaly Kallay                                 : mrcc  (arbitrary order and MRCC methods)
   Jiri Pittner, Ondrej Demel                    : Mk-CCSD
   Frank Weinhold                                : gennbo (NPA and NBO analysis)
   Christopher J. Cramer and Donald G. Truhlar   : smd solvation model
   Lars Goerigk                                  : TD-DFT with DH, B97 family of functionals
   V. Asgeirsson, H. Jonsson                     : NEB implementation
   FAccTs GmbH                                   : IRC, NEB, NEB-TS, DLPNO-Multilevel, CI-OPT
                                                   MM, QMMM, 2- and 3-layer-ONIOM, Crystal-QMMM,
                                                   LR-CPCM, SF, NACMEs, symmetry and pop. for TD-DFT,
                                                   nearIR, NL-DFT gradient (VV10), updates on ESD,
                                                   ML-optimized integration grids
   S Lehtola, MJT Oliveira, MAL Marques          : LibXC Library
   Liviu Ungur et al                             : ANISO software


 Your calculation uses the libint2 library for the computation of 2-el integrals
 For citations please refer to: http://libint.valeyev.net

 Your ORCA version has been built with support for libXC version: 5.1.0
 For citations please refer to: https://tddft.org/programs/libxc/

 This ORCA versions uses:
   CBLAS   interface :  Fast vector & matrix operations
   LAPACKE interface :  Fast linear algebra routines
   SCALAPACK package :  Parallel linear algebra routines
   Shared memory     :  Shared parallel matrices
   BLAS/LAPACK       :  OpenBLAS 0.3.15  USE64BITINT DYNAMIC_ARCH NO_AFFINITY SkylakeX SINGLE_THREADED
        Core in use  :  SkylakeX
   Copyright (c) 2011-2014, The OpenBLAS Project


Your calculation utilizes the geometrical counterpoise correction gCP
Please cite in your paper:
H.Kruse, S. Grimme J.Chem.Phys., 136, (2012), 154101 
   

Your calculation utilizes the atom-pairwise dispersion correction
with the Becke-Johnson damping scheme (D3BJ)
Cite in your paper:
S.Grimme, S.Ehrlich, L.Goerigk, J Comput Chem, (2011), 32, 1456–1465 
S.Grimme, J.Antony, S.Ehrlich and H.Krieg, J.Chem.Phys., 132, (2010), 154104 
   

Your calculation employs the composite approach PBEh-3c.
Please cite in your paper:
S. Grimme, J. G. Brandenburg, C. Bannwarth, A. Hansen J.Chem.Phys., 143, (2015), 054107 
   

================================================================================

----- Orbital basis set information -----
Your calculation utilizes the basis: def2-mSVP

----- AuxJ basis set information -----
Your calculation utilizes the auxiliary basis: def2/J
   F. Weigend, Phys. Chem. Chem. Phys. 8, 1057 (2006).

================================================================================
                                        WARNINGS
                       Please study these warnings very carefully!
================================================================================


INFO   : the flag for use of the SHARK integral package has been found!

================================================================================
                                       INPUT FILE
================================================================================
NAME = 2_6_orca.inp
|  1> ! EnGrad PBEh-3c
|  2> %output 
|  3> xyzfile=True 
|  4> end 
|  5> %scf 
|  6> maxiter 250 
|  7> end
|  8> %output
|  9> Print[P_Hirshfeld] = 1
| 10> end
| 11> % maxcore
| 12> 4000
| 13> *xyz 1 1
| 14> Sc   1.55856499  -1.36486862  -1.60701372 
| 15> C    0.46907418  -0.71005045   0.24934072 
| 16> N   -0.47372773  -1.39430535   0.92010614 
| 17> C   -0.86650703  -0.71071393   2.03727720 
| 18> C   -0.19962257   0.45968003   2.02968132 
| 19> N    0.61212651   0.44241865   0.92864652 
| 20> C    1.49367742   1.54270822   0.57003069 
| 21> H    1.78984259   2.06004264   1.47668916 
| 22> H    0.99745063   2.24200525  -0.09774586 
| 23> H    2.38600305   1.16929170   0.06707961 
| 24> C   -0.97644442  -2.71501057   0.58788112 
| 25> H   -0.43641737  -3.12250220  -0.26422600 
| 26> H   -2.02676158  -2.64144567   0.32941109 
| 27> H   -0.85593859  -3.39485103   1.42907683 
| 28> H   -1.61060504  -1.09934062   2.71154724 
| 29> H   -0.24750370   1.29239193   2.71527772 
| 30> C   -0.38466400   1.60347080  -2.81349606 
| 31> H   -0.89194013   1.13998953  -3.66913634 
| 32> H   -0.34157565   2.70048500  -2.86019439 
| 33> H   -0.67984602   1.21611862  -1.82993811 
| 34> H    0.68597824   1.28903410  -2.91111345 
| 35> *
| 36> 
| 37>                          ****END OF INPUT****
================================================================================

                     *******************************
                     * Energy+Gradient Calculation *
                     *******************************

---------------------------------
CARTESIAN COORDINATES (ANGSTROEM)
---------------------------------
  Sc     1.558565   -1.364869   -1.607014
  C      0.469074   -0.710050    0.249341
  N     -0.473728   -1.394305    0.920106
  C     -0.866507   -0.710714    2.037277
  C     -0.199623    0.459680    2.029681
  N      0.612127    0.442419    0.928647
  C      1.493677    1.542708    0.570031
  H      1.789843    2.060043    1.476689
  H      0.997451    2.242005   -0.097746
  H      2.386003    1.169292    0.067080
  C     -0.976444   -2.715011    0.587881
  H     -0.436417   -3.122502   -0.264226
  H     -2.026762   -2.641446    0.329411
  H     -0.855939   -3.394851    1.429077
  H     -1.610605   -1.099341    2.711547
  H     -0.247504    1.292392    2.715278
  C     -0.384664    1.603471   -2.813496
  H     -0.891940    1.139990   -3.669136
  H     -0.341576    2.700485   -2.860194
  H     -0.679846    1.216119   -1.829938
  H      0.685978    1.289034   -2.911113

----------------------------
CARTESIAN COORDINATES (A.U.)
----------------------------
  NO LB      ZA    FRAG     MASS         X           Y           Z
   0 Sc   21.0000    0    44.960    2.945261   -2.579228   -3.036816
   1 C     6.0000    0    12.011    0.886422   -1.341801    0.471186
   2 N     7.0000    0    14.007   -0.895216   -2.634855    1.738749
   3 C     6.0000    0    12.011   -1.637461   -1.343055    3.849896
   4 C     6.0000    0    12.011   -0.377232    0.868669    3.835542
   5 N     7.0000    0    14.007    1.156751    0.836050    1.754888
   6 C     6.0000    0    12.011    2.822641    2.915296    1.077202
   7 H     1.0000    0     1.008    3.382312    3.892916    2.790538
   8 H     1.0000    0     1.008    1.884909    4.236776   -0.184713
   9 H     1.0000    0     1.008    4.508892    2.209641    0.126762
  10 C     6.0000    0    12.011   -1.845213   -5.130626    1.110934
  11 H     1.0000    0     1.008   -0.824709   -5.900674   -0.499315
  12 H     1.0000    0     1.008   -3.830024   -4.991609    0.622497
  13 H     1.0000    0     1.008   -1.617490   -6.415339    2.700564
  14 H     1.0000    0     1.008   -3.043602   -2.077453    5.124082
  15 H     1.0000    0     1.008   -0.467714    2.442267    5.131131
  16 C     6.0000    0    12.011   -0.726910    3.030121   -5.316737
  17 H     1.0000    0     1.008   -1.685523    2.154268   -6.933663
  18 H     1.0000    0     1.008   -0.645484    5.103177   -5.404984
  19 H     1.0000    0     1.008   -1.284723    2.298131   -3.458082
  20 H     1.0000    0     1.008    1.296311    2.435921   -5.501207

--------------------------------
INTERNAL COORDINATES (ANGSTROEM)
--------------------------------
 Sc     0   0   0     0.000000000000     0.00000000     0.00000000
 C      1   0   0     2.249850854556     0.00000000     0.00000000
 N      2   1   0     1.344249403326   127.09931896     0.00000000
 C      3   2   1     1.367349255058   110.77381527   177.13273713
 C      4   3   2     1.347076316319   106.71139237     2.99246499
 N      2   1   3     1.345401562912   127.91015974   180.10004996
 C      6   2   1     1.454776428974   126.00362423     1.96825301
 H      7   6   2     1.085070638834   108.66403597   208.86758306
 H      7   6   2     1.086822379237   111.18820854    88.47465531
 H      7   6   2     1.090249841200   110.52611371   328.41722529
 C      3   2   1     1.451674830137   126.28375292     0.69340174
 H     11   3   2     1.088009736724   110.37057478     3.51286054
 H     11   3   2     1.084151598030   109.16695093   244.17632819
 H     11   3   2     1.088262343665   110.67680355   123.57443032
 H      4   3   2     1.076732389922   121.98603097   180.46427901
 H      5   4   3     1.079696315963   130.13230929   177.91271884
 C      9   7   6     3.113401073279   127.34982575   305.30566106
 H     17   9   7     1.097389743194   166.39656471    23.64138587
 H     17   9   7     1.098852808584    79.33380555   192.44597252
 H     17   9   7     1.097524659081    53.84851006    62.43637705
 H     17   9   7     1.120122492949    73.09871041   300.59411045

---------------------------
INTERNAL COORDINATES (A.U.)
---------------------------
 Sc     0   0   0     0.000000000000     0.00000000     0.00000000
 C      1   0   0     4.251601957279     0.00000000     0.00000000
 N      2   1   0     2.540263227973   127.09931896     0.00000000
 C      3   2   1     2.583915621481   110.77381527   177.13273713
 C      4   3   2     2.545605319334   106.71139237     2.99246499
 N      2   1   3     2.542440494054   127.91015974   180.10004996
 C      6   2   1     2.749129036845   126.00362423     1.96825301
 H      7   6   2     2.050486343356   108.66403597   208.86758306
 H      7   6   2     2.053796652975   111.18820854    88.47465531
 H      7   6   2     2.060273617419   110.52611371   328.41722529
 C      3   2   1     2.743267864466   126.28375292     0.69340174
 H     11   3   2     2.056040433448   110.37057478     3.51286054
 H     11   3   2     2.048749607929   109.16695093   244.17632819
 H     11   3   2     2.056517791386   110.67680355   123.57443032
 H      4   3   2     2.034729336476   121.98603097   180.46427901
 H      5   4   3     2.040330344974   130.13230929   177.91271884
 C      9   7   6     5.883475373554   127.34982575   305.30566106
 H     17   9   7     2.073766076811   166.39656471    23.64138587
 H     17   9   7     2.076530869713    79.33380555   192.44597252
 H     17   9   7     2.074021030888    53.84851006    62.43637705
 H     17   9   7     2.116724748118    73.09871041   300.59411045

---------------------
BASIS SET INFORMATION
---------------------
There are 4 groups of distinct atoms

 Group   1 Type Sc  : 14s9p5d1f contracted to 5s3p2d1f pattern {63311/531/41/1}
 Group   2 Type C   : 8s4p1d contracted to 4s2p1d pattern {5111/31/1}
 Group   3 Type N   : 8s4p1d contracted to 4s2p1d pattern {5111/31/1}
 Group   4 Type H   : 4s contracted to 2s pattern {31}

Atom   0Sc   basis set group =>   1
Atom   1C    basis set group =>   2
Atom   2N    basis set group =>   3
Atom   3C    basis set group =>   2
Atom   4C    basis set group =>   2
Atom   5N    basis set group =>   3
Atom   6C    basis set group =>   2
Atom   7H    basis set group =>   4
Atom   8H    basis set group =>   4
Atom   9H    basis set group =>   4
Atom  10C    basis set group =>   2
Atom  11H    basis set group =>   4
Atom  12H    basis set group =>   4
Atom  13H    basis set group =>   4
Atom  14H    basis set group =>   4
Atom  15H    basis set group =>   4
Atom  16C    basis set group =>   2
Atom  17H    basis set group =>   4
Atom  18H    basis set group =>   4
Atom  19H    basis set group =>   4
Atom  20H    basis set group =>   4
---------------------------------
AUXILIARY/J BASIS SET INFORMATION
---------------------------------
There are 4 groups of distinct atoms

 Group   1 Type Sc  : 19s5p5d3f3g contracted to 8s5p5d2f3g pattern {121111111/11111/11111/21/111}
 Group   2 Type C   : 12s5p4d2f1g contracted to 6s4p3d1f1g pattern {711111/2111/211/2/1}
 Group   3 Type N   : 12s5p4d2f1g contracted to 6s4p3d1f1g pattern {711111/2111/211/2/1}
 Group   4 Type H   : 5s2p1d contracted to 3s1p1d pattern {311/2/1}

Atom   0Sc   basis set group =>   1
Atom   1C    basis set group =>   2
Atom   2N    basis set group =>   3
Atom   3C    basis set group =>   2
Atom   4C    basis set group =>   2
Atom   5N    basis set group =>   3
Atom   6C    basis set group =>   2
Atom   7H    basis set group =>   4
Atom   8H    basis set group =>   4
Atom   9H    basis set group =>   4
Atom  10C    basis set group =>   2
Atom  11H    basis set group =>   4
Atom  12H    basis set group =>   4
Atom  13H    basis set group =>   4
Atom  14H    basis set group =>   4
Atom  15H    basis set group =>   4
Atom  16C    basis set group =>   2
Atom  17H    basis set group =>   4
Atom  18H    basis set group =>   4
Atom  19H    basis set group =>   4
Atom  20H    basis set group =>   4
------------------------------------------------------------------------------
                           ORCA GTO INTEGRAL CALCULATION
                           -- RI-GTO INTEGRALS CHOSEN --
------------------------------------------------------------------------------
------------------------------------------------------------------------------
                   ___                                                        
                  /   \      - P O W E R E D   B Y -                         
                 /     \                                                     
                 |  |  |   _    _      __       _____    __    __             
                 |  |  |  | |  | |    /  \     |  _  \  |  |  /  |          
                  \  \/   | |  | |   /    \    | | | |  |  | /  /          
                 / \  \   | |__| |  /  /\  \   | |_| |  |  |/  /          
                |  |  |   |  __  | /  /__\  \  |    /   |      \           
                |  |  |   | |  | | |   __   |  |    \   |  |\   \          
                \     /   | |  | | |  |  |  |  | |\  \  |  | \   \       
                 \___/    |_|  |_| |__|  |__|  |_| \__\ |__|  \__/        
                                                                              
                      - O R C A' S   B I G   F R I E N D -                    
                                      &                                       
                       - I N T E G R A L  F E E D E R -                       
                                                                              
 v1 FN, 2020, v2 2021                                                         
------------------------------------------------------------------------------


Reading SHARK input file 2_6_orca.SHARKINP.tmp ... ok
----------------------
SHARK INTEGRAL PACKAGE
----------------------

Number of atoms                             ...     21
Number of basis functions                   ...    175
Number of shells                            ...     91
Maximum angular momentum                    ...      3
Integral batch strategy                     ... SHARK/LIBINT Hybrid
RI-J (if used) integral strategy            ... SPLIT-RIJ (Revised 2003 algorithm where possible)
Printlevel                                  ...      1
Contraction scheme used                     ... SEGMENTED contraction
Coulomb Range Separation                    ... NOT USED
Exchange Range Separation                   ... NOT USED
Finite Nucleus Model                        ... NOT USED
Auxiliary Coulomb fitting basis             ... AVAILABLE
   # of basis functions in Aux-J            ...    613
   # of shells in Aux-J                     ...    203
   Maximum angular momentum in Aux-J        ...      4
Auxiliary J/K fitting basis                 ... NOT available
Auxiliary Correlation fitting basis         ... NOT available
Auxiliary 'external' fitting basis          ... NOT available
Integral threshold                          ...     2.500000e-11
Primitive cut-off                           ...     2.500000e-12
Primitive pair pre-selection threshold      ...     2.500000e-12

Calculating pre-screening integrals         ... done (  0.1 sec) Dimension = 91
Organizing shell pair data                  ... done (  0.0 sec)
Shell pair information
Total number of shell pairs                 ...      4186
Shell pairs after pre-screening             ...      3627
Total number of primitive shell pairs       ...     16651
Primitive shell pairs kept                  ...      9688
          la=0 lb=0:   1530 shell pairs
          la=1 lb=0:   1068 shell pairs
          la=1 lb=1:    187 shell pairs
          la=2 lb=0:    520 shell pairs
          la=2 lb=1:    180 shell pairs
          la=2 lb=2:     51 shell pairs
          la=3 lb=0:     61 shell pairs
          la=3 lb=1:     19 shell pairs
          la=3 lb=2:     10 shell pairs
          la=3 lb=3:      1 shell pairs

Calculating one electron integrals          ... done (  0.0 sec)
Calculating RI/J V-Matrix + Cholesky decomp.... done (  0.0 sec)
Calculating Nuclear repulsion               ... done (  0.0 sec) ENN=    566.104295614735 Eh

SHARK setup successfully completed in   0.3 seconds

Maximum memory used throughout the entire GTOINT-calculation: 32.8 MB
-------------------------------------------------------------------------------
                                 ORCA SCF
-------------------------------------------------------------------------------

------------
SCF SETTINGS
------------
Hamiltonian:
 Density Functional     Method          .... DFT(GTOs)
 Exchange Functional    Exchange        .... PBE
   PBE kappa parameter   XKappa         ....  1.024500
   PBE mue parameter    XMuePBE         ....  0.123457
 Correlation Functional Correlation     .... PBE
   PBE beta parameter  CBetaPBE         ....  0.030000
 LDA part of GGA corr.  LDAOpt          .... PW91-LDA
 Gradients option       PostSCFGGA      .... off
 Hybrid DFT is turned on
   Fraction HF Exchange ScalHFX         ....  0.420000
   Scaling of DF-GGA-X  ScalDFX         ....  0.580000
   Scaling of DF-GGA-C  ScalDFC         ....  1.000000
   Scaling of DF-LDA-C  ScalLDAC        ....  1.000000
   Perturbative correction              ....  0.000000
   Density functional embedding theory  .... OFF
 RI-approximation to the Coulomb term is turned on
   Number of AuxJ basis functions       .... 613
   RIJ-ON(X) (HFX calculated with O(N)) .... on
   Number of AuxJ basis functions       .... 613
   RIJ-COSX (HFX calculated with COS-X)).... on


General Settings:
 Integral files         IntName         .... 2_6_orca
 Hartree-Fock type      HFTyp           .... RHF
 Total Charge           Charge          ....    1
 Multiplicity           Mult            ....    1
 Number of Electrons    NEL             ....   82
 Basis Dimension        Dim             ....  175
 Nuclear Repulsion      ENuc            ....    566.1042956147 Eh

Convergence Acceleration:
 DIIS                   CNVDIIS         .... on
   Start iteration      DIISMaxIt       ....    12
   Startup error        DIISStart       ....  0.200000
   # of expansion vecs  DIISMaxEq       ....     5
   Bias factor          DIISBfac        ....   1.050
   Max. coefficient     DIISMaxC        ....  10.000
 Trust-Rad. Augm. Hess. CNVTRAH         .... auto
   Auto Start mean grad. ratio tolernc. ....  1.125000
   Auto Start start iteration           ....    20
   Auto Start num. interpolation iter.  ....    10
   Max. Number of Micro iterations      ....    16
   Max. Number of Macro iterations      .... Maxiter - #DIIS iter
   Number of Davidson start vectors     ....     2
   Converg. threshold I  (grad. norm)   ....   1.000e-05
   Converg. threshold II (energy diff.) ....   1.000e-08
   Grad. Scal. Fac. for Micro threshold ....   0.100
   Minimum threshold for Micro iter.    ....   0.010
   NR start threshold (gradient norm)   ....   0.001
   Initial trust radius                 ....   0.400
   Minimum AH scaling param. (alpha)    ....   1.000
   Maximum AH scaling param. (alpha)    .... 1000.000
   Orbital update algorithm             .... Taylor
   White noise on init. David. guess    .... on
   Maximum white noise                  ....   0.010
   Quad. conv. algorithm                .... NR
   COSX micro iterations for RIJONX calc.... off
 SOSCF                  CNVSOSCF        .... off
 Level Shifting         CNVShift        .... on
   Level shift para.    LevelShift      ....    0.2500
   Turn off err/grad.   ShiftErr        ....    0.0010
 Zerner damping         CNVZerner       .... off
 Static damping         CNVDamp         .... on
   Fraction old density DampFac         ....    0.7000
   Max. Damping (<1)    DampMax         ....    0.9800
   Min. Damping (>=0)   DampMin         ....    0.0000
   Turn off err/grad.   DampErr         ....    0.1000
 Fernandez-Rico         CNVRico         .... off

SCF Procedure:
 Maximum # iterations   MaxIter         ....   250
 SCF integral mode      SCFMode         .... Direct
   Integral package                     .... SHARK and LIBINT hybrid scheme
 Reset frequency        DirectResetFreq ....    20
 Integral Threshold     Thresh          ....  2.500e-11 Eh
 Primitive CutOff       TCut            ....  2.500e-12 Eh

Convergence Tolerance:
 Convergence Check Mode ConvCheckMode   .... Total+1el-Energy
 Convergence forced     ConvForced      .... 0
 Energy Change          TolE            ....  1.000e-08 Eh
 1-El. energy change                    ....  1.000e-05 Eh
 DIIS Error             TolErr          ....  5.000e-07


Diagonalization of the overlap matrix:
Smallest eigenvalue                        ... 1.397e-03
Time for diagonalization                   ...    0.010 sec
Threshold for overlap eigenvalues          ... 1.000e-08
Number of eigenvalues below threshold      ... 0
Time for construction of square roots      ...    0.002 sec
Total time needed                          ...    0.013 sec

--------------------------------
INITIAL GUESS: MINIMAL BASIS EHT
--------------------------------
The minimal basis has 70 functions
EHT matrix was diagonalized
Basis set overlap was calculated now projecting the orbitals
Using GuessMode=FMatrix for the initial guess
C*T matrix was formed
Effective Fockian was calculated
Effective Fockian was diagonalized
Initial density was built
                      ------------------
                      INITIAL GUESS DONE
                      ------------------
-------------------
DFT GRID GENERATION
-------------------

General Integration Accuracy     IntAcc      ... 4.159
Radial Grid Type                 RadialGrid  ... OptM3 with GC (2021)
Angular Grid (max. ang.)         AngularGrid ... 3 (Lebedev-194)
Angular grid pruning method      GridPruning ... 4 (adaptive)
Weight generation scheme         WeightScheme... Becke
Basis function cutoff            BFCut       ... 1.0000e-11
Integration weight cutoff        WCut        ... 1.0000e-14
Angular grids for H and He will be reduced by one unit
Partially contracted basis set               ... off
Rotationally invariant grid construction     ... off

Total number of grid points                  ...    48254
Total number of batches                      ...      767
Average number of points per batch           ...       62
Average number of grid points per atom       ...     2298
Time for grid setup =    0.449 sec

--------------------
COSX GRID GENERATION
--------------------

GRIDX 1
-------
General Integration Accuracy     IntAcc      ... 3.816
Radial Grid Type                 RadialGrid  ... OptM3 with GC (2021)
Angular Grid (max. ang.)         AngularGrid ... 1 (Lebedev-50)
Angular grid pruning method      GridPruning ... 4 (adaptive)
Weight generation scheme         WeightScheme... Becke
Basis function cutoff            BFCut       ... 1.0000e-11
Integration weight cutoff        WCut        ... 1.0000e-14
Angular grids for H and He will be reduced by one unit
Partially contracted basis set               ... on
Rotationally invariant grid construction     ... off

Total number of grid points                  ...    12314
Total number of batches                      ...      202
Average number of points per batch           ...       60
Average number of grid points per atom       ...      586
UseSFitting                                  ... on

GRIDX 2
-------
General Integration Accuracy     IntAcc      ... 4.020
Radial Grid Type                 RadialGrid  ... OptM3 with GC (2021)
Angular Grid (max. ang.)         AngularGrid ... 2 (Lebedev-110)
Angular grid pruning method      GridPruning ... 4 (adaptive)
Weight generation scheme         WeightScheme... Becke
Basis function cutoff            BFCut       ... 1.0000e-11
Integration weight cutoff        WCut        ... 1.0000e-14
Angular grids for H and He will be reduced by one unit
Partially contracted basis set               ... on
Rotationally invariant grid construction     ... off

Total number of grid points                  ...    26035
Total number of batches                      ...      418
Average number of points per batch           ...       62
Average number of grid points per atom       ...     1240
UseSFitting                                  ... on

GRIDX 3
-------
General Integration Accuracy     IntAcc      ... 4.338
Radial Grid Type                 RadialGrid  ... OptM3 with GC (2021)
Angular Grid (max. ang.)         AngularGrid ... 3 (Lebedev-194)
Angular grid pruning method      GridPruning ... 4 (adaptive)
Weight generation scheme         WeightScheme... Becke
Basis function cutoff            BFCut       ... 1.0000e-11
Integration weight cutoff        WCut        ... 1.0000e-14
Angular grids for H and He will be reduced by one unit
Partially contracted basis set               ... on
Rotationally invariant grid construction     ... off

Total number of grid points                  ...    56972
Total number of batches                      ...      901
Average number of points per batch           ...       63
Average number of grid points per atom       ...     2713
UseSFitting                                  ... on

Time for X-Grid setup             =    1.227 sec

--------------
SCF ITERATIONS
--------------
ITER       Energy         Delta-E        Max-DP      RMS-DP      [F,P]     Damp
               ***  Starting incremental Fock matrix formation  ***
  0  -1102.8987456236   0.000000000000 0.54372491  0.00840264  0.4095869 0.7000
  1  -1101.9441295036   0.954616120003 0.16743888  0.00491553  0.2835394 0.7000
  2  -1102.9633302220  -1.019200718468 0.11375087  0.00306810  0.2045198 0.7000
                               ***Turning on DIIS***
  3  -1103.3894824967  -0.426152274631 0.07650277  0.00213129  0.1467891 0.7000
  4  -1103.6335113013  -0.244028804645 0.10464531  0.00275762  0.1103634 0.7000
  5  -1103.8465109283  -0.212999626964 0.24389452  0.00655110  0.0720611 0.0000
  6  -1104.3820202275  -0.535509299227 0.05863316  0.00143123  0.0679458 0.0000
  7  -1104.4073766498  -0.025356422253 0.03613081  0.00080421  0.0229305 0.0000
  8  -1104.4141121401  -0.006735490311 0.02494659  0.00062844  0.0139808 0.0000
  9  -1104.4177969995  -0.003684859473 0.02016581  0.00051973  0.0116874 0.0000
 10  -1104.4200395662  -0.002242566684 0.02036548  0.00041791  0.0100018 0.0000
 11  -1104.4217261638  -0.001686597622 0.01633809  0.00032819  0.0101550 0.0000
 12  -1104.4230886190  -0.001362455167 0.01130604  0.00022575  0.0104587 0.0000
 13  -1104.4240453134  -0.000956694378 0.00843387  0.00016284  0.0105257 0.0000
 14  -1104.4247445144  -0.000699201013 0.00582978  0.00011590  0.0104639 0.0000
 15  -1104.4252406305  -0.000496116082 0.00633798  0.00012658  0.0101944 0.0000
 16  -1104.4258047815  -0.000564150996 0.00952129  0.00017786  0.0101151 0.0000
 17  -1104.4266111250  -0.000806343568 0.01545275  0.00026113  0.0103946 0.0000
 18  -1104.4278064000  -0.001195274952 0.02714133  0.00039288  0.0109549 0.0000
 19  -1104.4295965670  -0.001790166984 0.03187568  0.00041933  0.0115250 0.0000
               *** Restarting incremental Fock matrix formation ***
                                   *** Resetting DIIS ***

 WARNING: the maximum gradient error descreased on average only by a factor   1.0
          during the last 20 iterations

                      *** Initiating the TRAH-SCF procedure ***


TRAH GRIDX
----------

General Integration Accuracy     IntAcc      ... 3.067
Radial Grid Type                 RadialGrid  ... OptM3 with GC (2021)
Angular Grid (max. ang.)         AngularGrid ... 1 (Lebedev-50)
Angular grid pruning method      GridPruning ... 4 (adaptive)
Weight generation scheme         WeightScheme... Becke
Basis function cutoff            BFCut       ... 1.0000e-11
Integration weight cutoff        WCut        ... 1.0000e-14
Angular grids for H and He will be reduced by one unit
Partially contracted basis set               ... on
Rotationally invariant grid construction     ... off

Total number of grid points                  ...     6562
Total number of batches                      ...      116
Average number of points per batch           ...       56
Average number of grid points per atom       ...      312


TRAH GRID
---------

General Integration Accuracy     IntAcc      ... 3.467
Radial Grid Type                 RadialGrid  ... OptM3 with GC (2021)
Angular Grid (max. ang.)         AngularGrid ... 1 (Lebedev-50)
Angular grid pruning method      GridPruning ... 4 (adaptive)
Weight generation scheme         WeightScheme... Becke
Basis function cutoff            BFCut       ... 1.0000e-11
Integration weight cutoff        WCut        ... 1.0000e-14
Angular grids for H and He will be reduced by one unit
Partially contracted basis set               ... off
Rotationally invariant grid construction     ... off

Total number of grid points                  ...    16365
Total number of batches                      ...      267
Average number of points per batch           ...       61
Average number of grid points per atom       ...      779

 --------------------------------------------------------------------------------------------
   Iter.        energy            ||Error||_2        Shift      TRadius  Mac/Mic        Rej.
 --------------------------------------------------------------------------------------------
    0      -1104.431592037520     6.269962e-02                     0.400 (TRAH MAcro)   No
    0     dE    -3.702552e-03     5.752181e-01    -7.3057e-03      0.117 (TRAH MIcro)
    0     dE    -2.306814e-02     2.304303e-01    -1.8779e-01      0.362 (TRAH MIcro)
    0     dE    -2.618316e-02     3.295334e-02    -2.0049e-01      0.383 (TRAH MIcro)
    0     dE    -2.650045e-02     2.533022e-02    -2.0173e-01      0.385 (TRAH MIcro)
    0     dE    -2.663649e-02     1.000980e-02    -2.0216e-01      0.386 (TRAH MIcro)
    0     dE    -2.666974e-02     4.921590e-03    -2.0223e-01      0.386 (TRAH MIcro)
    1      -1104.453154559413     6.794432e-02                     0.480 (TRAH MAcro)   No
    1     dE    -5.694826e-04     2.558524e-01    -1.1386e-03      0.017 (TRAH MIcro)
    1     dE    -8.673380e-03     1.104933e-01    -1.5563e-02      0.339 (TRAH MIcro)
    1     dE    -1.020891e-02     7.231895e-02    -1.7757e-02      0.387 (TRAH MIcro)
    1     dE    -1.094646e-02     4.429501e-02    -1.8755e-02      0.409 (TRAH MIcro)
    1     dE    -1.117322e-02     2.193724e-02    -1.9033e-02      0.417 (TRAH MIcro)
    1     dE    -1.126369e-02     1.928687e-02    -1.9139e-02      0.421 (TRAH MIcro)
    1     dE    -1.131310e-02     1.532049e-02    -1.9200e-02      0.422 (TRAH MIcro)
    1     dE    -1.136627e-02     1.531911e-02    -1.9252e-02      0.425 (TRAH MIcro)
    1     dE    -1.140115e-02     6.562615e-03    -1.9279e-02      0.427 (TRAH MIcro)
    2      -1104.463926074887     6.917544e-02                     0.576 (TRAH MAcro)   No
    2     dE    -2.839574e-04     1.447643e-01    -5.6787e-04      0.008 (TRAH MIcro)
    2     dE    -6.691869e-04     4.195926e-02    -1.3370e-03      0.032 (TRAH MIcro)
    2     dE    -9.574013e-04     6.009254e-02    -1.9054e-03      0.070 (TRAH MIcro)
    2     dE    -1.177305e-03     3.232062e-02    -2.3256e-03      0.112 (TRAH MIcro)
    2     dE    -1.317019e-03     2.737888e-02    -2.5813e-03      0.143 (TRAH MIcro)
    2     dE    -1.345239e-03     1.424982e-02    -2.6316e-03      0.150 (TRAH MIcro)
    2     dE    -1.356274e-03     5.682517e-03    -2.6513e-03      0.152 (TRAH MIcro)
    3      -1104.465505832513     1.538133e-02                     0.691 (TRAH MAcro)   No
    3     dE    -4.911709e-06     6.584059e-02    -9.8234e-06      0.001 (TRAH MIcro)
    3     dE    -4.938886e-05     2.079837e-02    -9.8769e-05      0.010 (TRAH MIcro)
    3     dE    -1.074371e-04     2.711625e-02    -2.1466e-04      0.032 (TRAH MIcro)
    3     dE    -1.646194e-04     2.344064e-02    -3.2802e-04      0.061 (TRAH MIcro)
    3     dE    -2.175093e-04     1.192352e-02    -4.3144e-04      0.091 (TRAH MIcro)
    3     dE    -2.238727e-04     3.870152e-03    -4.4374e-04      0.095 (TRAH MIcro)
    3     dE    -2.247295e-04     1.539835e-03    -4.4539e-04      0.096 (TRAH MIcro)
    3     dE    -2.248720e-04     4.542233e-04    -4.4566e-04      0.096 (TRAH MIcro)
    4      -1104.465753975173     5.740490e-03                     0.829 (TRAH MAcro)   No
    4     dE    -2.562596e-06     1.215902e-02    -5.1252e-06      0.001 (TRAH MIcro)
    4     dE    -5.409107e-06     5.040696e-03    -1.0818e-05      0.003 (TRAH MIcro)
    4     dE    -7.148490e-06     5.041773e-03    -1.4296e-05      0.006 (TRAH MIcro)
    4     dE    -9.399406e-06     4.782781e-03    -1.8796e-05      0.011 (TRAH MIcro)
    4     dE    -1.165020e-05     4.294249e-03    -2.3293e-05      0.018 (TRAH MIcro)
    4     dE    -1.245085e-05     1.689406e-03    -2.4891e-05      0.021 (TRAH MIcro)
    4     dE    -1.274490e-05     1.032792e-03    -2.5478e-05      0.022 (TRAH MIcro)
    4     dE    -1.281450e-05     4.874989e-04    -2.5617e-05      0.022 (TRAH MIcro)
    5      -1104.465767343391     5.607099e-04                           (NR   MAcro)
    5     dE    -3.965944e-08     3.393928e-04                           (NR   MIcro)
    5     dE    -8.365707e-08     5.388056e-04                           (NR   MIcro)
    5     dE    -1.240374e-07     3.865961e-04                           (NR   MIcro)
    5     dE    -1.464450e-07     3.332589e-04                           (NR   MIcro)
    5     dE    -1.588188e-07     2.796016e-04                           (NR   MIcro)
    5     dE    -1.663551e-07     2.029125e-04                           (NR   MIcro)
    5     dE    -1.734731e-07     3.205402e-04                           (NR   MIcro)
    5     dE    -1.805534e-07     1.788538e-04                           (NR   MIcro)
    5     dE    -1.837653e-07     1.296860e-04                           (NR   MIcro)
    5     dE    -1.843053e-07     4.614954e-05                           (NR   MIcro)
    5     dE    -1.843867e-07     8.819715e-06                           (NR   MIcro)
    5     dE    -1.843917e-07     4.140870e-06                           (NR   MIcro)
    5     dE    -1.843924e-07     9.951899e-07                           (NR   MIcro)
    6      -1104.465767517142     5.389386e-06                           (NR   MAcro)
    6     dE    -3.848800e-12     2.139866e-06                           (NR   MIcro)
    6     dE    -4.857328e-12     1.681307e-06                           (NR   MIcro)
    6     dE    -5.691933e-12     2.461354e-06                           (NR   MIcro)
    6     dE    -7.696404e-12     2.521244e-06                           (NR   MIcro)
    6     dE    -8.582964e-12     1.476750e-06                           (NR   MIcro)
    6     dE    -8.915010e-12     9.184802e-07                           (NR   MIcro)
    7      -1104.465767517277     9.195907e-07                           (NR   MAcro)

               *****************************************************
               *                     SUCCESS                       *
               *           SCF CONVERGED AFTER  85 CYCLES          *
               *****************************************************

Old exchange energy                            =    -36.266018284 Eh
New exchange energy                            =    -36.266050082 Eh
Exchange energy change after final integration =     -0.000031798 Eh
Total energy after final integration           =  -1104.465799315 Eh
Final COS-X integration done in                =    10.984 sec

----------------
TOTAL SCF ENERGY
----------------

Total Energy       :        -1104.46579932 Eh          -30054.04232 eV

Components:
Nuclear Repulsion  :          566.10429561 Eh           15404.48103 eV
Electronic Energy  :        -1670.57009493 Eh          -45458.52335 eV
One Electron Energy:        -2615.92748580 Eh          -71183.00576 eV
Two Electron Energy:          945.35739087 Eh           25724.48241 eV
Max COSX asymmetry :            0.00000679 Eh               0.00018 eV

Virial components:
Potential Energy   :        -2205.46782019 Eh          -60013.83043 eV
Kinetic Energy     :         1101.00202088 Eh           29959.78811 eV
Virial Ratio       :            2.00314602


DFT components:
N(Alpha)           :       40.999829546721 electrons
N(Beta)            :       40.999829546721 electrons
N(Total)           :       81.999659093442 electrons
E(X)               :      -48.340042308630 Eh       
E(C)               :       -3.750375777509 Eh       
E(XC)              :      -52.090418086139 Eh       
DFET-embed. en.    :        0.000000000000 Eh       

---------------
SCF CONVERGENCE
---------------

  Last Energy change         ...   -1.3529e-10  Tolerance :   1.0000e-08
  Last Orbital Gradient      ...    9.1959e-07  Tolerance :   1.0000e-05
  Last Orbital Rotation      ...    1.7407e-05

             **** THE GBW FILE WAS UPDATED (2_6_orca.gbw) ****
             **** DENSITY 2_6_orca.scfp WAS UPDATED ****
             **** ENERGY FILE WAS UPDATED (2_6_orca.en.tmp) ****
             **** THE GBW FILE WAS UPDATED (2_6_orca.gbw) ****
             **** DENSITY 2_6_orca.scfp WAS UPDATED ****
----------------
ORBITAL ENERGIES
----------------

  NO   OCC          E(Eh)            E(eV) 
   0   2.0000    -162.908605     -4432.9685 
   1   2.0000     -18.219070      -495.7661 
   2   2.0000     -15.060162      -409.8078 
   3   2.0000     -15.058064      -409.7508 
   4   2.0000     -15.043404      -409.3518 
   5   2.0000     -14.870928      -404.6585 
   6   2.0000     -14.870820      -404.6556 
   7   2.0000     -10.652184      -289.8607 
   8   2.0000     -10.634222      -289.3719 
   9   2.0000     -10.632181      -289.3164 
  10   2.0000     -10.624648      -289.1114 
  11   2.0000     -10.623313      -289.0750 
  12   2.0000     -10.544553      -286.9319 
  13   2.0000      -2.427811       -66.0641 
  14   2.0000      -1.575478       -42.8709 
  15   2.0000      -1.569215       -42.7005 
  16   2.0000      -1.558248       -42.4021 
  17   2.0000      -1.319827       -35.9143 
  18   2.0000      -1.195659       -32.5355 
  19   2.0000      -1.030962       -28.0539 
  20   2.0000      -0.988886       -26.9090 
  21   2.0000      -0.931323       -25.3426 
  22   2.0000      -0.894998       -24.3541 
  23   2.0000      -0.850877       -23.1535 
  24   2.0000      -0.810526       -22.0555 
  25   2.0000      -0.756442       -20.5838 
  26   2.0000      -0.709849       -19.3160 
  27   2.0000      -0.681236       -18.5374 
  28   2.0000      -0.662705       -18.0331 
  29   2.0000      -0.661113       -17.9898 
  30   2.0000      -0.656374       -17.8608 
  31   2.0000      -0.608937       -16.5700 
  32   2.0000      -0.604064       -16.4374 
  33   2.0000      -0.595885       -16.2149 
  34   2.0000      -0.577005       -15.7011 
  35   2.0000      -0.570444       -15.5226 
  36   2.0000      -0.549604       -14.9555 
  37   2.0000      -0.526662       -14.3312 
  38   2.0000      -0.492253       -13.3949 
  39   2.0000      -0.443380       -12.0650 
  40   2.0000      -0.330039        -8.9808 
  41   0.0000      -0.188255        -5.1227 
  42   0.0000      -0.185134        -5.0378 
  43   0.0000      -0.184535        -5.0215 
  44   0.0000      -0.171773        -4.6742 
  45   0.0000      -0.168850        -4.5946 
  46   0.0000      -0.137470        -3.7408 
  47   0.0000      -0.129897        -3.5347 
  48   0.0000      -0.090152        -2.4532 
  49   0.0000      -0.065864        -1.7923 
  50   0.0000      -0.056292        -1.5318 
  51   0.0000      -0.009793        -0.2665 
  52   0.0000       0.024766         0.6739 
  53   0.0000       0.029258         0.7962 
  54   0.0000       0.042944         1.1686 
  55   0.0000       0.053082         1.4444 
  56   0.0000       0.054820         1.4917 
  57   0.0000       0.064305         1.7498 
  58   0.0000       0.066686         1.8146 
  59   0.0000       0.074010         2.0139 
  60   0.0000       0.082099         2.2340 
  61   0.0000       0.086525         2.3545 
  62   0.0000       0.094791         2.5794 
  63   0.0000       0.099611         2.7106 
  64   0.0000       0.110261         3.0004 
  65   0.0000       0.119610         3.2547 
  66   0.0000       0.137640         3.7454 
  67   0.0000       0.165210         4.4956 
  68   0.0000       0.206784         5.6269 
  69   0.0000       0.223943         6.0938 
  70   0.0000       0.284544         7.7428 
  71   0.0000       0.293564         7.9883 
  72   0.0000       0.295359         8.0371 
  73   0.0000       0.331794         9.0286 
  74   0.0000       0.349250         9.5036 
  75   0.0000       0.362318         9.8592 
  76   0.0000       0.368018        10.0143 
  77   0.0000       0.376002        10.2315 
  78   0.0000       0.401390        10.9224 
  79   0.0000       0.402447        10.9511 
  80   0.0000       0.409214        11.1353 
  81   0.0000       0.432136        11.7590 
  82   0.0000       0.434182        11.8147 
  83   0.0000       0.457765        12.4564 
  84   0.0000       0.466008        12.6807 
  85   0.0000       0.495795        13.4913 
  86   0.0000       0.507857        13.8195 
  87   0.0000       0.515093        14.0164 
  88   0.0000       0.525454        14.2983 
  89   0.0000       0.543620        14.7927 
  90   0.0000       0.555095        15.1049 
  91   0.0000       0.584317        15.9001 
  92   0.0000       0.644608        17.5407 
  93   0.0000       0.663810        18.0632 
  94   0.0000       0.675675        18.3861 
  95   0.0000       0.757923        20.6241 
  96   0.0000       0.763906        20.7869 
  97   0.0000       0.783205        21.3121 
  98   0.0000       0.793452        21.5909 
  99   0.0000       0.797636        21.7048 
 100   0.0000       0.815125        22.1807 
 101   0.0000       0.819434        22.2979 
 102   0.0000       0.843645        22.9568 
 103   0.0000       0.863371        23.4935 
 104   0.0000       0.874274        23.7902 
 105   0.0000       0.878206        23.8972 
 106   0.0000       0.891719        24.2649 
 107   0.0000       0.896176        24.3862 
 108   0.0000       0.920042        25.0356 
 109   0.0000       0.928483        25.2653 
 110   0.0000       0.935924        25.4678 
 111   0.0000       0.948526        25.8107 
 112   0.0000       0.957906        26.0659 
 113   0.0000       0.964441        26.2438 
 114   0.0000       0.972456        26.4619 
 115   0.0000       0.988365        26.8948 
 116   0.0000       1.011207        27.5163 
 117   0.0000       1.024012        27.8648 
 118   0.0000       1.035927        28.1890 
 119   0.0000       1.048005        28.5177 
 120   0.0000       1.096171        29.8283 
 121   0.0000       1.113227        30.2924 
 122   0.0000       1.164097        31.6767 
 123   0.0000       1.212506        32.9940 
 124   0.0000       1.232753        33.5449 
 125   0.0000       1.269129        34.5348 
 126   0.0000       1.300560        35.3900 
 127   0.0000       1.333760        36.2935 
 128   0.0000       1.473872        40.1061 
 129   0.0000       1.485973        40.4354 
 130   0.0000       1.504303        40.9342 
 131   0.0000       1.581437        43.0331 
 132   0.0000       1.595491        43.4155 
 133   0.0000       1.603077        43.6220 
 134   0.0000       1.721384        46.8412 
 135   0.0000       1.750834        47.6426 
 136   0.0000       1.827043        49.7164 
 137   0.0000       1.847312        50.2679 
 138   0.0000       1.864685        50.7407 
 139   0.0000       1.871926        50.9377 
 140   0.0000       1.901405        51.7399 
 141   0.0000       1.940677        52.8085 
 142   0.0000       1.976460        53.7822 
 143   0.0000       2.047174        55.7064 
 144   0.0000       2.051342        55.8199 
 145   0.0000       2.096832        57.0577 
 146   0.0000       2.120189        57.6933 
 147   0.0000       2.139171        58.2098 
 148   0.0000       2.165029        58.9134 
 149   0.0000       2.172485        59.1163 
 150   0.0000       2.176633        59.2292 
 151   0.0000       2.179728        59.3134 
 152   0.0000       2.208480        60.0958 
 153   0.0000       2.210578        60.1529 
 154   0.0000       2.242356        61.0176 
 155   0.0000       2.267563        61.7035 
 156   0.0000       2.351583        63.9898 
 157   0.0000       2.370991        64.5179 
 158   0.0000       2.420689        65.8703 
 159   0.0000       2.514301        68.4176 
 160   0.0000       2.532228        68.9054 
 161   0.0000       2.655406        72.2573 
 162   0.0000       2.706690        73.6528 
 163   0.0000       2.729839        74.2827 
 164   0.0000       2.952132        80.3316 
 165   0.0000       3.012783        81.9820 
 166   0.0000       3.065617        83.4197 
 167   0.0000      13.357025       363.4631 
 168   0.0000      13.553260       368.8029 
 169   0.0000      13.590383       369.8131 
 170   0.0000      13.654444       371.5563 
 171   0.0000      13.768959       374.6724 
 172   0.0000      13.966025       380.0349 
 173   0.0000      19.100844       519.7604 
 174   0.0000      19.329908       525.9935 

                    ********************************
                    * MULLIKEN POPULATION ANALYSIS *
                    ********************************

-----------------------
MULLIKEN ATOMIC CHARGES
-----------------------
   0 Sc:    0.513413
   1 C :    0.208421
   2 N :   -0.410719
   3 C :   -0.062360
   4 C :   -0.063589
   5 N :   -0.420097
   6 C :   -0.521556
   7 H :    0.278787
   8 H :    0.280823
   9 H :    0.260797
  10 C :   -0.519032
  11 H :    0.253923
  12 H :    0.281180
  13 H :    0.280164
  14 H :    0.305524
  15 H :    0.306318
  16 C :   -0.890711
  17 H :    0.260366
  18 H :    0.262699
  19 H :    0.209498
  20 H :    0.186152
Sum of atomic charges:    1.0000000

--------------------------------
MULLIKEN REDUCED ORBITAL CHARGES
--------------------------------
  0 Scs       :     7.291822  s :     7.291822
      pz      :     4.064339  p :    12.134946
      px      :     4.035984
      py      :     4.034622
      dz2     :     0.187566  d :     1.048696
      dxz     :     0.458634
      dyz     :     0.169537
      dx2y2   :     0.027622
      dxy     :     0.205337
      f0      :     0.001341  f :     0.011123
      f+1     :     0.004172
      f-1     :     0.001749
      f+2     :     0.001002
      f-2     :     0.002290
      f+3     :     0.000206
      f-3     :     0.000362
  1 C s       :     3.182557  s :     3.182557
      pz      :     0.981757  p :     2.542379
      px      :     0.845691
      py      :     0.714930
      dz2     :     0.008246  d :     0.066644
      dxz     :     0.010668
      dyz     :     0.019281
      dx2y2   :     0.016668
      dxy     :     0.011781
  2 N s       :     3.534131  s :     3.534131
      pz      :     1.252799  p :     3.823525
      px      :     1.327363
      py      :     1.243363
      dz2     :     0.012391  d :     0.053064
      dxz     :     0.007334
      dyz     :     0.012312
      dx2y2   :     0.010860
      dxy     :     0.010166
  3 C s       :     3.162388  s :     3.162388
      pz      :     0.883216  p :     2.845177
      px      :     1.050500
      py      :     0.911461
      dz2     :     0.012023  d :     0.054796
      dxz     :     0.010601
      dyz     :     0.013422
      dx2y2   :     0.007751
      dxy     :     0.011000
  4 C s       :     3.161148  s :     3.161148
      pz      :     0.890110  p :     2.847477
      px      :     0.909161
      py      :     1.048205
      dz2     :     0.011752  d :     0.054964
      dxz     :     0.011268
      dyz     :     0.012586
      dx2y2   :     0.012197
      dxy     :     0.007162
  5 N s       :     3.538189  s :     3.538189
      pz      :     1.257732  p :     3.829247
      px      :     1.340502
      py      :     1.231013
      dz2     :     0.012103  d :     0.052660
      dxz     :     0.008939
      dyz     :     0.010778
      dx2y2   :     0.009876
      dxy     :     0.010965
  6 C s       :     3.374401  s :     3.374401
      pz      :     1.167899  p :     3.098591
      px      :     1.004342
      py      :     0.926350
      dz2     :     0.006035  d :     0.048564
      dxz     :     0.008429
      dyz     :     0.012656
      dx2y2   :     0.007004
      dxy     :     0.014440
  7 H s       :     0.721213  s :     0.721213
  8 H s       :     0.719177  s :     0.719177
  9 H s       :     0.739203  s :     0.739203
 10 C s       :     3.374293  s :     3.374293
      pz      :     1.156653  p :     3.096037
      px      :     1.128374
      py      :     0.811011
      dz2     :     0.007319  d :     0.048701
      dxz     :     0.006368
      dyz     :     0.012086
      dx2y2   :     0.014970
      dxy     :     0.007958
 11 H s       :     0.746077  s :     0.746077
 12 H s       :     0.718820  s :     0.718820
 13 H s       :     0.719836  s :     0.719836
 14 H s       :     0.694476  s :     0.694476
 15 H s       :     0.693682  s :     0.693682
 16 C s       :     3.462105  s :     3.462105
      pz      :     1.130264  p :     3.398837
      px      :     1.094218
      py      :     1.174355
      dz2     :     0.008836  d :     0.029770
      dxz     :     0.003616
      dyz     :     0.005117
      dx2y2   :     0.009247
      dxy     :     0.002954
 17 H s       :     0.739634  s :     0.739634
 18 H s       :     0.737301  s :     0.737301
 19 H s       :     0.790502  s :     0.790502
 20 H s       :     0.813848  s :     0.813848


                     *******************************
                     * LOEWDIN POPULATION ANALYSIS *
                     *******************************

----------------------
LOEWDIN ATOMIC CHARGES
----------------------
   0 Sc:    0.364467
   1 C :   -0.049841
   2 N :    0.011540
   3 C :   -0.076775
   4 C :   -0.074643
   5 N :    0.008239
   6 C :   -0.237354
   7 H :    0.157845
   8 H :    0.152565
   9 H :    0.152493
  10 C :   -0.237060
  11 H :    0.150260
  12 H :    0.155627
  13 H :    0.156796
  14 H :    0.170270
  15 H :    0.170532
  16 C :   -0.516830
  17 H :    0.150670
  18 H :    0.151911
  19 H :    0.123715
  20 H :    0.115572

-------------------------------
LOEWDIN REDUCED ORBITAL CHARGES
-------------------------------
  0 Scs       :     7.227786  s :     7.227786
      pz      :     4.111109  p :    12.210995
      px      :     4.056072
      py      :     4.043814
      dz2     :     0.221119  d :     1.166449
      dxz     :     0.507701
      dyz     :     0.188286
      dx2y2   :     0.031192
      dxy     :     0.218151
      f0      :     0.003924  f :     0.030303
      f+1     :     0.011447
      f-1     :     0.004651
      f+2     :     0.002472
      f-2     :     0.006323
      f+3     :     0.000411
      f-3     :     0.001075
  1 C s       :     2.931392  s :     2.931392
      pz      :     1.109882  p :     2.972153
      px      :     0.958860
      py      :     0.903410
      dz2     :     0.016202  d :     0.146296
      dxz     :     0.021890
      dyz     :     0.042108
      dx2y2   :     0.037354
      dxy     :     0.028743
  2 N s       :     3.043800  s :     3.043800
      pz      :     1.265225  p :     3.817494
      px      :     1.312475
      py      :     1.239795
      dz2     :     0.029689  d :     0.127166
      dxz     :     0.018968
      dyz     :     0.030333
      dx2y2   :     0.024235
      dxy     :     0.023940
  3 C s       :     2.883452  s :     2.883452
      pz      :     0.978072  p :     3.071421
      px      :     1.060537
      py      :     1.032811
      dz2     :     0.027294  d :     0.121902
      dxz     :     0.020809
      dyz     :     0.031526
      dx2y2   :     0.017370
      dxy     :     0.024903
  4 C s       :     2.884141  s :     2.884141
      pz      :     0.977355  p :     3.068393
      px      :     0.997012
      py      :     1.094026
      dz2     :     0.026483  d :     0.122109
      dxz     :     0.026100
      dyz     :     0.026027
      dx2y2   :     0.026136
      dxy     :     0.017363
  5 N s       :     3.043747  s :     3.043747
      pz      :     1.267560  p :     3.821837
      px      :     1.311747
      py      :     1.242530
      dz2     :     0.029078  d :     0.126177
      dxz     :     0.021195
      dyz     :     0.028134
      dx2y2   :     0.022800
      dxy     :     0.024970
  6 C s       :     2.941918  s :     2.941918
      pz      :     1.151565  p :     3.202386
      px      :     1.052204
      py      :     0.998617
      dz2     :     0.010577  d :     0.093051
      dxz     :     0.015086
      dyz     :     0.023940
      dx2y2   :     0.014734
      dxy     :     0.028714
  7 H s       :     0.842155  s :     0.842155
  8 H s       :     0.847435  s :     0.847435
  9 H s       :     0.847507  s :     0.847507
 10 C s       :     2.941854  s :     2.941854
      pz      :     1.146805  p :     3.201655
      px      :     1.129199
      py      :     0.925651
      dz2     :     0.013140  d :     0.093552
      dxz     :     0.010377
      dyz     :     0.023694
      dx2y2   :     0.029828
      dxy     :     0.016511
 11 H s       :     0.849740  s :     0.849740
 12 H s       :     0.844373  s :     0.844373
 13 H s       :     0.843204  s :     0.843204
 14 H s       :     0.829730  s :     0.829730
 15 H s       :     0.829468  s :     0.829468
 16 C s       :     3.016965  s :     3.016965
      pz      :     1.145884  p :     3.452031
      px      :     1.136817
      py      :     1.169330
      dz2     :     0.014214  d :     0.047835
      dxz     :     0.006226
      dyz     :     0.007870
      dx2y2   :     0.014840
      dxy     :     0.004684
 17 H s       :     0.849330  s :     0.849330
 18 H s       :     0.848089  s :     0.848089
 19 H s       :     0.876285  s :     0.876285
 20 H s       :     0.884428  s :     0.884428


                      *****************************
                      * MAYER POPULATION ANALYSIS *
                      *****************************

  NA   - Mulliken gross atomic population
  ZA   - Total nuclear charge
  QA   - Mulliken gross atomic charge
  VA   - Mayer's total valence
  BVA  - Mayer's bonded valence
  FA   - Mayer's free valence

  ATOM       NA         ZA         QA         VA         BVA        FA
  0 Sc    20.4866    21.0000     0.5134     0.9120     0.9120     0.0000
  1 C      5.7916     6.0000     0.2084     3.2337     3.2337    -0.0000
  2 N      7.4107     7.0000    -0.4107     3.4127     3.4127    -0.0000
  3 C      6.0624     6.0000    -0.0624     3.7453     3.7453    -0.0000
  4 C      6.0636     6.0000    -0.0636     3.7447     3.7447    -0.0000
  5 N      7.4201     7.0000    -0.4201     3.4022     3.4022    -0.0000
  6 C      6.5216     6.0000    -0.5216     3.5939     3.5939    -0.0000
  7 H      0.7212     1.0000     0.2788     0.8924     0.8924     0.0000
  8 H      0.7192     1.0000     0.2808     0.8801     0.8801    -0.0000
  9 H      0.7392     1.0000     0.2608     0.9022     0.9022     0.0000
 10 C      6.5190     6.0000    -0.5190     3.5911     3.5911    -0.0000
 11 H      0.7461     1.0000     0.2539     0.9114     0.9114     0.0000
 12 H      0.7188     1.0000     0.2812     0.8824     0.8824     0.0000
 13 H      0.7198     1.0000     0.2802     0.8861     0.8861    -0.0000
 14 H      0.6945     1.0000     0.3055     0.8773     0.8773    -0.0000
 15 H      0.6937     1.0000     0.3063     0.8763     0.8763    -0.0000
 16 C      6.8907     6.0000    -0.8907     3.7169     3.7169     0.0000
 17 H      0.7396     1.0000     0.2604     0.9047     0.9047     0.0000
 18 H      0.7373     1.0000     0.2627     0.9036     0.9036     0.0000
 19 H      0.7905     1.0000     0.2095     0.9170     0.9170     0.0000
 20 H      0.8138     1.0000     0.1862     0.9189     0.9189     0.0000

  Mayer bond orders larger than 0.100000
B(  0-Sc,  1-C ) :   0.6975 B(  1-C ,  2-N ) :   1.2294 B(  1-C ,  5-N ) :   1.2234 
B(  2-N ,  3-C ) :   1.1613 B(  2-N , 10-C ) :   0.9100 B(  3-C ,  4-C ) :   1.6277 
B(  3-C , 14-H ) :   0.8774 B(  4-C ,  5-N ) :   1.1559 B(  4-C , 15-H ) :   0.8770 
B(  5-N ,  6-C ) :   0.9070 B(  6-C ,  7-H ) :   0.9007 B(  6-C ,  8-H ) :   0.8876 
B(  6-C ,  9-H ) :   0.8957 B( 10-C , 11-H ) :   0.8927 B( 10-C , 12-H ) :   0.8925 
B( 10-C , 13-H ) :   0.8944 B( 16-C , 17-H ) :   0.9182 B( 16-C , 18-H ) :   0.9154 
B( 16-C , 19-H ) :   0.9249 B( 16-C , 20-H ) :   0.9187 


------------------
HIRSHFELD ANALYSIS
------------------

Total integrated alpha density =     40.999829547
Total integrated beta density  =     40.999829547

  ATOM     CHARGE      SPIN    
   0 Sc   0.442252    0.000000
   1 C   -0.067605    0.000000
   2 N   -0.006388    0.000000
   3 C    0.021459    0.000000
   4 C    0.023332    0.000000
   5 N   -0.007536    0.000000
   6 C    0.015567    0.000000
   7 H    0.067965    0.000000
   8 H    0.059430    0.000000
   9 H    0.054296    0.000000
  10 C    0.015628    0.000000
  11 H    0.047568    0.000000
  12 H    0.063873    0.000000
  13 H    0.066527    0.000000
  14 H    0.088834    0.000000
  15 H    0.089277    0.000000
  16 C   -0.108584    0.000000
  17 H    0.049264    0.000000
  18 H    0.050752    0.000000
  19 H    0.024947    0.000000
  20 H    0.009483    0.000000

  TOTAL   1.000341    0.000000

-------
TIMINGS
-------

Total SCF time: 0 days 0 hours 4 min 22 sec 

Total time                  ....     262.323 sec
Sum of individual times     ....     260.044 sec  ( 99.1%)

Fock matrix formation       ....     257.724 sec  ( 98.2%)
  Split-RI-J                ....      40.038 sec  ( 15.5% of F)
  Chain of spheres X        ....     188.172 sec  ( 73.0% of F)
  XC integration            ....      29.529 sec  ( 11.5% of F)
    Basis function eval.    ....      11.231 sec  ( 38.0% of XC)
    Density eval.           ....       6.096 sec  ( 20.6% of XC)
    XC-Functional eval.     ....       1.686 sec  (  5.7% of XC)
    XC-Potential eval.      ....       8.441 sec  ( 28.6% of XC)
Diagonalization             ....       0.100 sec  (  0.0%)
Density matrix formation    ....       0.019 sec  (  0.0%)
Population analysis         ....       0.367 sec  (  0.1%)
Initial guess               ....       0.019 sec  (  0.0%)
Orbital Transformation      ....       0.101 sec  (  0.0%)
Orbital Orthonormalization  ....       0.000 sec  (  0.0%)
DIIS solution               ....       0.037 sec  (  0.0%)
Grid generation             ....       1.677 sec  (  0.6%)

Maximum memory used throughout the entire SCF-calculation: 96.7 MB


-------------------------------------------------------------------------------
                          DFT DISPERSION CORRECTION                            
                                                                               
                              DFTD3 V3.1  Rev 1                                
                          USING Becke-Johnson damping                          
-------------------------------------------------------------------------------
The PBEh-3c composite method is recognized
Using three-body term ABC
Active option DFTDOPT                   ...         4   

molecular C6(AA) [au] = 5439.697096 


            DFT-D V3
 parameters
 s6 scaling factor         :     1.0000 
 a1 scaling factor         :     0.4860 
 s8 scaling factor         :     0.0000 
 a2 scaling factor         :     4.5000 
 Damping factor alpha9(ATM):    16.0000 
 ad hoc parameters k1-k3   :    16.0000     1.3333    -4.0000 

 Edisp/kcal,au: -6.893258276931  -0.010985105128 
 E6   /kcal   :  -6.945417472 
 E8   /kcal   :  -0.000000000 
 E6(ABC)      :   0.052159195 
 % E8         :   0.000000000 
 % E6(ABC)    :  -0.756669677 

-------------------------   ----------------
Dispersion correction           -0.010985105
-------------------------   ----------------

------------------   -----------------
gCP correction             0.027975934
------------------   -----------------

-------------------------   --------------------
FINAL SINGLE POINT ENERGY     -1104.448808486174
-------------------------   --------------------

------------------------------------------------------------------------------
                         ORCA SCF GRADIENT CALCULATION
------------------------------------------------------------------------------

 ... reading COSX grid (gridx3)
Gradient of the Kohn-Sham DFT energy:
Kohn-Sham wavefunction type      ... RKS
Hartree-Fock exchange scaling    ...    0.420
Number of operators              ...    1
Number of atoms                  ...   21
Basis set dimensions             ...  175
Integral neglect threshold       ... 2.5e-11
Integral primitive cutoff        ... 2.5e-12
SHARK Integral package           ... ON

Nuc. rep. gradient       (SHARK) ... done (  0.0 sec)
HCore & Overlap gradient (SHARK) ... done (  0.4 sec)
RI-J gradient            (SHARK) ... done (  1.7 sec)
COSX-gradient                    ... done ( 13.2 sec)
Exchange-correlation gradient    ... done
Dispersion correction            ... done
gCP correction                   ... done

------------------
CARTESIAN GRADIENT
------------------

   1   Sc  :   -0.001075265    0.000196172   -0.000123184
   2   C   :    0.001790480   -0.000843599    0.004905720
   3   N   :   -0.007248008    0.002824207   -0.005150277
   4   C   :    0.008170609    0.003915427    0.004036993
   5   C   :   -0.002329297   -0.005985398   -0.001949744
   6   N   :   -0.001843384   -0.000075275   -0.001856164
   7   C   :    0.000057855    0.002048720    0.001983568
   8   H   :   -0.002030871   -0.001128441    0.000290606
   9   H   :    0.002122123   -0.000641192   -0.000333858
  10   H   :    0.000632306    0.000481146   -0.002523778
  11   C   :    0.000226787   -0.000301339    0.000267911
  12   H   :    0.000020635   -0.000721043   -0.000599540
  13   H   :    0.002670688    0.001585540    0.001007828
  14   H   :   -0.000438169   -0.001021860   -0.000154202
  15   H   :   -0.000542277   -0.001146117   -0.001217216
  16   H   :   -0.000973825    0.001747166    0.001405045
  17   C   :   -0.036091731    0.008481702    0.001747447
  18   H   :    0.004536189   -0.007071832   -0.010902494
  19   H   :    0.010010214    0.009123705   -0.001279687
  20   H   :    0.010579190   -0.006441624    0.008720799
  21   H   :    0.011794398   -0.005163712    0.001648019

Difference to translation invariance:
           :    0.0000386481   -0.0001376463   -0.0000762100

Difference to rotation invariance:
           :    0.0001846988   -0.0007613978   -0.0022230907

Norm of the cartesian gradient     ...    0.0496420876
RMS gradient                       ...    0.0062543152
MAX gradient                       ...    0.0360917310

-------
TIMINGS
-------

Total SCF gradient time            ...       18.674 sec

One electron gradient       ....       0.397 sec  (  2.1%)
RI-J Coulomb gradient       ....       1.750 sec  (  9.4%)
COSX gradient               ....      13.165 sec  ( 70.5%)
XC gradient                 ....       2.733 sec  ( 14.6%)

Maximum memory used throughout the entire SCFGRAD-calculation: 68.6 MB

                            ***************************************
                            *     ORCA property calculations      *
                            ***************************************

                                    ---------------------
                                    Active property flags
                                    ---------------------
   (+) Dipole Moment


------------------------------------------------------------------------------
                       ORCA ELECTRIC PROPERTIES CALCULATION
------------------------------------------------------------------------------

Dipole Moment Calculation                       ... on
Quadrupole Moment Calculation                   ... off
Polarizability Calculation                      ... off
GBWName                                         ... 2_6_orca.gbw
Electron density                                ... 2_6_orca.scfp
The origin for moment calculation is the CENTER OF MASS  = ( 0.783997, -0.940298 -0.208345)

-------------
DIPOLE MOMENT
-------------
                                X             Y             Z
Electronic contribution:      9.26039     -11.00714      -2.68405
Nuclear contribution   :     -8.98386      10.66892       2.65674
                        -----------------------------------------
Total Dipole Moment    :      0.27653      -0.33822      -0.02730
                        -----------------------------------------
Magnitude (a.u.)       :      0.43773
Magnitude (Debye)      :      1.11262



--------------------
Rotational spectrum 
--------------------
 
Rotational constants in cm-1:     0.041583     0.030212     0.023004 
Rotational constants in MHz :  1246.632481   905.746172   689.638589 

 Dipole components along the rotational axes: 
x,y,z [a.u.] :    -0.084459    -0.328862    -0.276268 
x,y,z [Debye]:    -0.214678    -0.835902    -0.702218 

 

Timings for individual modules:

Sum of individual times         ...      281.403 sec (=   4.690 min)
GTO integral calculation        ...        0.354 sec (=   0.006 min)   0.1 %
SCF iterations                  ...      262.349 sec (=   4.372 min)  93.2 %
SCF Gradient evaluation         ...       18.700 sec (=   0.312 min)   6.6 %
                             ****ORCA TERMINATED NORMALLY****
TOTAL RUN TIME: 0 days 0 hours 4 minutes 42 seconds 245 msec
