
                                 *****************
                                 * O   R   C   A *
                                 *****************

                                            #,                                       
                                            ###                                      
                                            ####                                     
                                            #####                                    
                                            ######                                   
                                           ########,                                 
                                     ,,################,,,,,                         
                               ,,#################################,,                 
                          ,,##########################################,,             
                       ,#########################################, ''#####,          
                    ,#############################################,,   '####,        
                  ,##################################################,,,,####,       
                ,###########''''           ''''###############################       
              ,#####''   ,,,,##########,,,,          '''####'''          '####       
            ,##' ,,,,###########################,,,                        '##       
           ' ,,###''''                  '''############,,,                           
         ,,##''                                '''############,,,,        ,,,,,,###''
      ,#''                                            '''#######################'''  
     '                                                          ''''####''''         
             ,#######,   #######,   ,#######,      ##                                
            ,#'     '#,  ##    ##  ,#'     '#,    #''#        ######   ,####,        
            ##       ##  ##   ,#'  ##            #'  '#       #        #'  '#        
            ##       ##  #######   ##           ,######,      #####,   #    #        
            '#,     ,#'  ##    ##  '#,     ,#' ,#      #,         ##   #,  ,#        
             '#######'   ##     ##  '#######'  #'      '#     #####' # '####'        



                  #######################################################
                  #                        -***-                        #
                  #          Department of theory and spectroscopy      #
                  #    Directorship and core code : Frank Neese         #
                  #        Max Planck Institute fuer Kohlenforschung    #
                  #                Kaiser Wilhelm Platz 1               #
                  #                 D-45470 Muelheim/Ruhr               #
                  #                      Germany                        #
                  #                                                     #
                  #                  All rights reserved                #
                  #                        -***-                        #
                  #######################################################


                         Program Version 5.0.3 -  RELEASE  -


 With contributions from (in alphabetic order):
   Daniel Aravena         : Magnetic Suceptibility
   Michael Atanasov       : Ab Initio Ligand Field Theory (pilot matlab implementation)
   Alexander A. Auer      : GIAO ZORA, VPT2 properties, NMR spectrum
   Ute Becker             : Parallelization
   Giovanni Bistoni       : ED, misc. LED, open-shell LED, HFLD
   Martin Brehm           : Molecular dynamics
   Dmytro Bykov           : SCF Hessian
   Vijay G. Chilkuri      : MRCI spin determinant printing, contributions to CSF-ICE
   Dipayan Datta          : RHF DLPNO-CCSD density
   Achintya Kumar Dutta   : EOM-CC, STEOM-CC
   Dmitry Ganyushin       : Spin-Orbit,Spin-Spin,Magnetic field MRCI
   Miquel Garcia          : C-PCM and meta-GGA Hessian, CC/C-PCM, Gaussian charge scheme
   Yang Guo               : DLPNO-NEVPT2, F12-NEVPT2, CIM, IAO-localization
   Andreas Hansen         : Spin unrestricted coupled pair/coupled cluster methods
   Benjamin Helmich-Paris : MC-RPA, TRAH-SCF, COSX integrals
   Lee Huntington         : MR-EOM, pCC
   Robert Izsak           : Overlap fitted RIJCOSX, COSX-SCS-MP3, EOM
   Marcus Kettner         : VPT2
   Christian Kollmar      : KDIIS, OOCD, Brueckner-CCSD(T), CCSD density, CASPT2, CASPT2-K
   Simone Kossmann        : Meta GGA functionals, TD-DFT gradient, OOMP2, MP2 Hessian
   Martin Krupicka        : Initial AUTO-CI
   Lucas Lang             : DCDCAS
   Marvin Lechner         : AUTO-CI (C++ implementation), FIC-MRCC
   Dagmar Lenk            : GEPOL surface, SMD
   Dimitrios Liakos       : Extrapolation schemes; Compound Job, initial MDCI parallelization
   Dimitrios Manganas     : Further ROCIS development; embedding schemes
   Dimitrios Pantazis     : SARC Basis sets
   Anastasios Papadopoulos: AUTO-CI, single reference methods and gradients
   Taras Petrenko         : DFT Hessian,TD-DFT gradient, ASA, ECA, R-Raman, ABS, FL, XAS/XES, NRVS
   Peter Pinski           : DLPNO-MP2, DLPNO-MP2 Gradient
   Christoph Reimann      : Effective Core Potentials
   Marius Retegan         : Local ZFS, SOC
   Christoph Riplinger    : Optimizer, TS searches, QM/MM, DLPNO-CCSD(T), (RO)-DLPNO pert. Triples
   Tobias Risthaus        : Range-separated hybrids, TD-DFT gradient, RPA, STAB
   Michael Roemelt        : Original ROCIS implementation
   Masaaki Saitow         : Open-shell DLPNO-CCSD energy and density
   Barbara Sandhoefer     : DKH picture change effects
   Avijit Sen             : IP-ROCIS
   Kantharuban Sivalingam : CASSCF convergence, NEVPT2, FIC-MRCI
   Bernardo de Souza      : ESD, SOC TD-DFT
   Georgi Stoychev        : AutoAux, RI-MP2 NMR, DLPNO-MP2 response
   Willem Van den Heuvel  : Paramagnetic NMR
   Boris Wezisla          : Elementary symmetry handling
   Frank Wennmohs         : Technical directorship


 We gratefully acknowledge several colleagues who have allowed us to
 interface, adapt or use parts of their codes:
   Stefan Grimme, W. Hujo, H. Kruse, P. Pracht,  : VdW corrections, initial TS optimization,
                  C. Bannwarth, S. Ehlert          DFT functionals, gCP, sTDA/sTD-DF
   Ed Valeev, F. Pavosevic, A. Kumar             : LibInt (2-el integral package), F12 methods
   Garnet Chan, S. Sharma, J. Yang, R. Olivares  : DMRG
   Ulf Ekstrom                                   : XCFun DFT Library
   Mihaly Kallay                                 : mrcc  (arbitrary order and MRCC methods)
   Jiri Pittner, Ondrej Demel                    : Mk-CCSD
   Frank Weinhold                                : gennbo (NPA and NBO analysis)
   Christopher J. Cramer and Donald G. Truhlar   : smd solvation model
   Lars Goerigk                                  : TD-DFT with DH, B97 family of functionals
   V. Asgeirsson, H. Jonsson                     : NEB implementation
   FAccTs GmbH                                   : IRC, NEB, NEB-TS, DLPNO-Multilevel, CI-OPT
                                                   MM, QMMM, 2- and 3-layer-ONIOM, Crystal-QMMM,
                                                   LR-CPCM, SF, NACMEs, symmetry and pop. for TD-DFT,
                                                   nearIR, NL-DFT gradient (VV10), updates on ESD,
                                                   ML-optimized integration grids
   S Lehtola, MJT Oliveira, MAL Marques          : LibXC Library
   Liviu Ungur et al                             : ANISO software


 Your calculation uses the libint2 library for the computation of 2-el integrals
 For citations please refer to: http://libint.valeyev.net

 Your ORCA version has been built with support for libXC version: 5.1.0
 For citations please refer to: https://tddft.org/programs/libxc/

 This ORCA versions uses:
   CBLAS   interface :  Fast vector & matrix operations
   LAPACKE interface :  Fast linear algebra routines
   SCALAPACK package :  Parallel linear algebra routines
   Shared memory     :  Shared parallel matrices
   BLAS/LAPACK       :  OpenBLAS 0.3.15  USE64BITINT DYNAMIC_ARCH NO_AFFINITY SkylakeX SINGLE_THREADED
        Core in use  :  SkylakeX
   Copyright (c) 2011-2014, The OpenBLAS Project


Your calculation utilizes the geometrical counterpoise correction gCP
Please cite in your paper:
H.Kruse, S. Grimme J.Chem.Phys., 136, (2012), 154101 
   

Your calculation utilizes the atom-pairwise dispersion correction
with the Becke-Johnson damping scheme (D3BJ)
Cite in your paper:
S.Grimme, S.Ehrlich, L.Goerigk, J Comput Chem, (2011), 32, 1456–1465 
S.Grimme, J.Antony, S.Ehrlich and H.Krieg, J.Chem.Phys., 132, (2010), 154104 
   

Your calculation employs the composite approach PBEh-3c.
Please cite in your paper:
S. Grimme, J. G. Brandenburg, C. Bannwarth, A. Hansen J.Chem.Phys., 143, (2015), 054107 
   

================================================================================

cite the ECPs for Pd [Def2-ECP] as follows:
Ce-Yb(ecp-28): M. Dolg, H. Stoll, H.Preuss, J. Chem. Phys., 1989, 90, 1730-1734.
Y-Cd(ecp-28), Hf-Hg(ecp-46): D. Andrae,U. Haeussermann, M. Dolg, H. Stoll, H. Preuss, Theor. Chim. Acta, 1990, 77, 123-141.
In-Sb(ecp-28), Tl-Bi(ecp-46): B. Metz, H. Stoll, M. Dolg, J. Chem. Phys., 2000, 113, 2563-2569.
Te-Xe(ecp-28), Po-Rn(ecp-46): K. A. Peterson, D. Figgen, E. Goll, H. Stoll, M. Dolg, J. Chem. Phys., 2003, 119, 11113-11123.
Rb(ecp-28), Cs(ecp-46): T. Leininger, A. Nicklass, W. Kuechle, H. Stoll, M. Dolg, A. Bergner, Chem. Phys. Lett., 1996, 255, 274-280.
Sr(ecp-28), Ba(ecp-46): M. Kaupp, P. V. Schleyer, H. Stoll and H. Preuss, J. Chem. Phys., 1991, 94, 1360-1366.
La(ecp-46): M. Dolg, H. Stoll, A. Savin, H. Preuss, Theor. Chim. Acta, 1989, 75, 173-194.
Lu(ecp-28): X. Cao, M. Dolg, J. Chem. Phys., 2001, 115, 7348-7355.

ECP parameters for Pd [Def2-ECP] have been obtained from:
TURBOMOLE (7.0.2)

----- Orbital basis set information -----
Your calculation utilizes the basis: def2-mSVP

----- AuxJ basis set information -----
Your calculation utilizes the auxiliary basis: def2/J
   F. Weigend, Phys. Chem. Chem. Phys. 8, 1057 (2006).

================================================================================
                                        WARNINGS
                       Please study these warnings very carefully!
================================================================================


INFO   : the flag for use of the SHARK integral package has been found!

================================================================================
                                       INPUT FILE
================================================================================
NAME = 8_1_orca.inp
|  1> ! EnGrad PBEh-3c
|  2> %output 
|  3> xyzfile=True 
|  4> end 
|  5> %scf 
|  6> maxiter 250 
|  7> end
|  8> %output
|  9> Print[P_Hirshfeld] = 1
| 10> end
| 11> % maxcore
| 12> 4000
| 13> *xyz -1 1
| 14> C   -1.89878006   0.00331281   0.55744469 
| 15> C   -1.71184972   1.06024064   1.45768758 
| 16> C   -3.30224321  -0.13693827   0.16001330 
| 17> C   -4.29951736   0.76156074   0.49099252 
| 18> C   -4.00651238   1.84758713   1.28147354 
| 19> C   -2.71169073   2.00430492   1.76214138 
| 20> H   -2.17745827  -2.56517635  -2.20083620 
| 21> H   -3.62375237  -1.04110324  -0.30974696 
| 22> H   -2.52946962   2.82860331   2.41419269 
| 23> H   -5.32228666   0.58325993   0.16483105 
| 24> H   -4.78364105   2.53484871   1.58230210 
| 25> C   -0.41945999   1.28495276   2.29025363 
| 26> C    0.79566736   0.34405742   2.15417777 
| 27> H   -0.72246218   1.24325039   3.32352100 
| 28> H   -0.09657165   2.27951262   2.09209118 
| 29> C    1.67227463   0.65929440   0.99417616 
| 30> H    0.48732003  -0.68820312   2.13593853 
| 31> H    1.39505048   0.45607879   3.06633961 
| 32> C    1.41775621   0.13384554  -0.28569680 
| 33> C    2.32844030   0.39834678  -1.30807114 
| 34> C    3.35183113   1.33015250  -1.12272161 
| 35> C    2.79341058   1.48301496   1.16992016 
| 36> C    3.56773765   1.90496617   0.10153623 
| 37> H    2.31345468  -0.15333885  -2.21357584 
| 38> H    4.05295656   1.51838867  -1.94354037 
| 39> H    3.08834996   1.77028364   2.17835130 
| 40> H    4.30001306   2.69840939   0.23017932 
| 41> Pd  -0.04880055  -1.27787007  -0.42743499 
| 42> Br  -1.57990829  -3.64305430  -0.09124656 
| 43> P    1.53499496  -3.00270508  -0.18789330 
| 44> H    1.49519459  -3.67752358   1.05466986 
| 45> C    0.06861603  -1.64192458  -3.78155133 
| 46> O    1.30069526  -1.72018083  -4.19167841 
| 47> O   -0.60078278  -2.54195025  -3.24284817 
| 48> O   -0.56242025  -0.42645829  -3.92955638 
| 49> H    2.88070868  -2.74644978  -0.18519957 
| 50> H    1.50702864  -4.11055263  -1.02354045 
| 51> H    0.04948926   0.24662482  -4.21902589 
| 52> *
| 53> 
| 54>                          ****END OF INPUT****
================================================================================

                     *******************************
                     * Energy+Gradient Calculation *
                     *******************************

---------------------------------
CARTESIAN COORDINATES (ANGSTROEM)
---------------------------------
  C     -1.898780    0.003313    0.557445
  C     -1.711850    1.060241    1.457688
  C     -3.302243   -0.136938    0.160013
  C     -4.299517    0.761561    0.490993
  C     -4.006512    1.847587    1.281474
  C     -2.711691    2.004305    1.762141
  H     -2.177458   -2.565176   -2.200836
  H     -3.623752   -1.041103   -0.309747
  H     -2.529470    2.828603    2.414193
  H     -5.322287    0.583260    0.164831
  H     -4.783641    2.534849    1.582302
  C     -0.419460    1.284953    2.290254
  C      0.795667    0.344057    2.154178
  H     -0.722462    1.243250    3.323521
  H     -0.096572    2.279513    2.092091
  C      1.672275    0.659294    0.994176
  H      0.487320   -0.688203    2.135939
  H      1.395050    0.456079    3.066340
  C      1.417756    0.133846   -0.285697
  C      2.328440    0.398347   -1.308071
  C      3.351831    1.330153   -1.122722
  C      2.793411    1.483015    1.169920
  C      3.567738    1.904966    0.101536
  H      2.313455   -0.153339   -2.213576
  H      4.052957    1.518389   -1.943540
  H      3.088350    1.770284    2.178351
  H      4.300013    2.698409    0.230179
  Pd    -0.048801   -1.277870   -0.427435
  Br    -1.579908   -3.643054   -0.091247
  P      1.534995   -3.002705   -0.187893
  H      1.495195   -3.677524    1.054670
  C      0.068616   -1.641925   -3.781551
  O      1.300695   -1.720181   -4.191678
  O     -0.600783   -2.541950   -3.242848
  O     -0.562420   -0.426458   -3.929556
  H      2.880709   -2.746450   -0.185200
  H      1.507029   -4.110553   -1.023540
  H      0.049489    0.246625   -4.219026

----------------------------
CARTESIAN COORDINATES (A.U.)
----------------------------
  NO LB      ZA    FRAG     MASS         X           Y           Z
   0 C     6.0000    0    12.011   -3.588174    0.006260    1.053418
   1 C     6.0000    0    12.011   -3.234927    2.003564    2.754630
   2 C     6.0000    0    12.011   -6.240335   -0.258776    0.302381
   3 C     6.0000    0    12.011   -8.124910    1.439141    0.927841
   4 C     6.0000    0    12.011   -7.571211    3.491434    2.421634
   5 C     6.0000    0    12.011   -5.124353    3.787587    3.329965
   6 H     1.0000    0     1.008   -4.114800   -4.847481   -4.158978
   7 H     1.0000    0     1.008   -6.847900   -1.967400   -0.585337
   8 H     1.0000    0     1.008   -4.780005    5.345286    4.562163
   9 H     1.0000    0     1.008  -10.057664    1.102202    0.311486
  10 H     1.0000    0     1.008   -9.039772    4.790170    2.990118
  11 C     6.0000    0    12.011   -0.792665    2.428209    4.327952
  12 C     6.0000    0    12.011    1.503593    0.650174    4.070806
  13 H     1.0000    0     1.008   -1.365256    2.349403    6.280544
  14 H     1.0000    0     1.008   -0.182494    4.307655    3.953479
  15 C     6.0000    0    12.011    3.160141    1.245886    1.878721
  16 H     1.0000    0     1.008    0.920901   -1.300515    4.036339
  17 H     1.0000    0     1.008    2.636263    0.861864    5.794542
  18 C     6.0000    0    12.011    2.679171    0.252931   -0.539889
  19 C     6.0000    0    12.011    4.400114    0.752766   -2.471896
  20 C     6.0000    0    12.011    6.334043    2.513624   -2.121636
  21 C     6.0000    0    12.011    5.278781    2.802492    2.210829
  22 C     6.0000    0    12.011    6.742047    3.599864    0.191876
  23 H     1.0000    0     1.008    4.371796   -0.289768   -4.183052
  24 H     1.0000    0     1.008    7.658978    2.869339   -3.672759
  25 H     1.0000    0     1.008    5.836136    3.345351    4.116487
  26 H     1.0000    0     1.008    8.125847    5.099255    0.434976
  27 Pd   18.0000*   0   106.400   -0.092220   -2.414824   -0.807735
  28 Br   35.0000    0    79.900   -2.985594   -6.884375   -0.172431
  29 P    15.0000    0    30.974    2.900720   -5.674290   -0.355067
  30 H     1.0000    0     1.008    2.825508   -6.949512    1.993037
  31 C     6.0000    0    12.011    0.129666   -3.102788   -7.146096
  32 O     8.0000    0    15.999    2.457958   -3.250671   -7.921124
  33 O     8.0000    0    15.999   -1.135315   -4.803590   -6.128095
  34 O     8.0000    0    15.999   -1.062820   -0.805889   -7.425785
  35 H     1.0000    0     1.008    5.443750   -5.190038   -0.349976
  36 H     1.0000    0     1.008    2.847871   -7.767819   -1.934211
  37 H     1.0000    0     1.008    0.093521    0.466053   -7.972803
* core charge reduced due to ECP

--------------------------------
INTERNAL COORDINATES (ANGSTROEM)
--------------------------------
 C      0   0   0     0.000000000000     0.00000000     0.00000000
 C      1   0   0     1.400884238914     0.00000000     0.00000000
 C      1   2   0     1.465377387776   111.98099019     0.00000000
 C      3   1   2     1.382535151561   124.31413885     7.75138882
 C      4   3   1     1.374832892050   119.82065313   357.66215911
 C      5   4   3     1.390023432688   119.10468219   358.44987659
 H      3   1   2     3.568626023565    86.71392561   172.51929389
 H      3   1   2     1.068436771557   119.23815614   195.86449995
 H      6   5   4     1.066697370185   117.23438716   183.14294810
 H      4   3   1     1.088223104139   119.98119257   180.52038278
 H      5   4   3     1.080164465066   120.62381234   182.58716978
 C      2   1   3     1.553683680386   124.36602368   166.58860452
 C     12   2   1     1.542833483311   121.31032282     1.33912662
 H     12   2   1     1.077585668388   105.92225494   240.18885771
 H     12   2   1     1.064271841130   106.72320017   125.89156213
 C     13  12   2     1.487756160995   113.80411797    82.14782290
 H     13  12   2     1.077484370297   111.12211786   315.96457199
 H     13  12   2     1.097200134082   107.13727938   201.12905585
 C     16  13  12     1.406751905751   121.57586395   273.36881373
 C     19  16  13     1.394473272900   118.55683766   184.16910454
 C     20  19  16     1.396404360858   120.52218469   350.10664995
 C     16  13  12     1.402265072262   119.85693805    94.29830352
 C     21  20  19     1.369610762005   120.94622822     6.56610630
 H     20  19  16     1.060434045510   121.20748437   165.12743274
 H     21  20  19     1.095788830504   118.95497718   180.02724262
 H     22  16  13     1.089240972653   119.17262609     8.42316760
 H     23  21  20     1.087349283376   121.20935947   185.83992952
 Pd    19  16  13     2.040543900122   116.84910334   351.83288485
 Br     7   3   1     2.443205947703    78.81703832    63.47978407
 P     28  19  16     2.353899796182    90.93402874   266.65722553
 H     30  28  19     1.414541368778   114.83632011   108.13313307
 C      7   3   1     2.897568621127   112.85569114   310.92802024
 O     32   7   3     1.300902567993   152.49468126   118.56680478
 O     32   7   3     1.244323940171    27.91437424   151.58426064
 O     32   7   3     1.377487053888    89.12116839   316.44705146
 H     30  28  19     1.369897606084   121.60702339   352.42393255
 H     30  28  19     1.387953337976   120.66722250   225.74259493
 H     35  32   7     0.954602911485   111.16711648   163.17553348

---------------------------
INTERNAL COORDINATES (A.U.)
---------------------------
 C      0   0   0     0.000000000000     0.00000000     0.00000000
 C      1   0   0     2.647287556873     0.00000000     0.00000000
 C      1   2   0     2.769161945738   111.98099019     0.00000000
 C      3   1   2     2.612612806969   124.31413885     7.75138882
 C      4   3   1     2.598057645881   119.82065313   357.66215911
 C      5   4   3     2.626763607513   119.10468219   358.44987659
 H      3   1   2     6.743725858922    86.71392561   172.51929389
 H      3   1   2     2.019052889653   119.23815614   195.86449995
 H      6   5   4     2.015765897423   117.23438716   183.14294810
 H      4   3   1     2.056443639428   119.98119257   180.52038278
 H      5   4   3     2.041215018569   120.62381234   182.58716978
 C      2   1   3     2.936036654672   124.36602368   166.58860452
 C     12   2   1     2.915532753702   121.31032282     1.33912662
 H     12   2   1     2.036341799092   105.92225494   240.18885771
 H     12   2   1     2.011182311779   106.72320017   125.89156213
 C     13  12   2     2.811451698335   113.80411797    82.14782290
 H     13  12   2     2.036150373443   111.12211786   315.96457199
 H     13  12   2     2.073407767517   107.13727938   201.12905585
 C     16  13  12     2.658375840241   121.57586395   273.36881373
 C     19  16  13     2.635172586853   118.55683766   184.16910454
 C     20  19  16     2.638821814235   120.52218469   350.10664995
 C     16  13  12     2.649896953738   119.85693805    94.29830352
 C     21  20  19     2.588189250260   120.94622822     6.56610630
 H     20  19  16     2.003929929101   121.20748437   165.12743274
 H     21  20  19     2.070740790262   118.95497718   180.02724262
 H     22  16  13     2.058367132160   119.17262609     8.42316760
 H     23  21  20     2.054792357497   121.20935947   185.83992952
 Pd    19  16  13     3.856069135474   116.84910334   351.83288485
 Br     7   3   1     4.616990129926    78.81703832    63.47978407
 P     28  19  16     4.448225961477    90.93402874   266.65722553
 H     30  28  19     2.673095792092   114.83632011   108.13313307
 C      7   3   1     5.475611148174   112.85569114   310.92802024
 O     32   7   3     2.458349580422   152.49468126   118.56680478
 O     32   7   3     2.351431468805    27.91437424   151.58426064
 O     32   7   3     2.603073284870    89.12116839   316.44705146
 H     30  28  19     2.588731307014   121.60702339   352.42393255
 H     30  28  19     2.622851695436   120.66722250   225.74259493
 H     35  32   7     1.803938069350   111.16711648   163.17553348

---------------------
BASIS SET INFORMATION
---------------------
There are 6 groups of distinct atoms

 Group   1 Type C   : 8s4p1d contracted to 4s2p1d pattern {5111/31/1}
 Group   2 Type H   : 4s contracted to 2s pattern {31}
 Group   3 Type Pd  : 7s6p5d1f contracted to 5s3p2d1f pattern {31111/411/41/1}
 Group   4 Type Br  : 14s10p6d contracted to 5s4p3d pattern {63311/5311/411}
 Group   5 Type P   : 10s7p1d contracted to 4s3p1d pattern {5311/511/1}
 Group   6 Type O   : 8s4p1d contracted to 4s2p1d pattern {5111/31/1}

Atom   0C    basis set group =>   1
Atom   1C    basis set group =>   1
Atom   2C    basis set group =>   1
Atom   3C    basis set group =>   1
Atom   4C    basis set group =>   1
Atom   5C    basis set group =>   1
Atom   6H    basis set group =>   2
Atom   7H    basis set group =>   2
Atom   8H    basis set group =>   2
Atom   9H    basis set group =>   2
Atom  10H    basis set group =>   2
Atom  11C    basis set group =>   1
Atom  12C    basis set group =>   1
Atom  13H    basis set group =>   2
Atom  14H    basis set group =>   2
Atom  15C    basis set group =>   1
Atom  16H    basis set group =>   2
Atom  17H    basis set group =>   2
Atom  18C    basis set group =>   1
Atom  19C    basis set group =>   1
Atom  20C    basis set group =>   1
Atom  21C    basis set group =>   1
Atom  22C    basis set group =>   1
Atom  23H    basis set group =>   2
Atom  24H    basis set group =>   2
Atom  25H    basis set group =>   2
Atom  26H    basis set group =>   2
Atom  27Pd   basis set group =>   3
Atom  28Br   basis set group =>   4
Atom  29P    basis set group =>   5
Atom  30H    basis set group =>   2
Atom  31C    basis set group =>   1
Atom  32O    basis set group =>   6
Atom  33O    basis set group =>   6
Atom  34O    basis set group =>   6
Atom  35H    basis set group =>   2
Atom  36H    basis set group =>   2
Atom  37H    basis set group =>   2
---------------------------------
AUXILIARY/J BASIS SET INFORMATION
---------------------------------
There are 6 groups of distinct atoms

 Group   1 Type C   : 12s5p4d2f1g contracted to 6s4p3d1f1g pattern {711111/2111/211/2/1}
 Group   2 Type H   : 5s2p1d contracted to 3s1p1d pattern {311/2/1}
 Group   3 Type Pd  : 11s5p5d3f3g contracted to 8s5p5d2f3g pattern {41111111/11111/11111/21/111}
 Group   4 Type Br  : 19s5p5d3f1g contracted to 8s4p3d2f1g pattern {121111111/2111/311/21/1}
 Group   5 Type P   : 14s5p5d2f1g contracted to 8s4p3d1f1g pattern {71111111/2111/311/2/1}
 Group   6 Type O   : 12s5p4d2f1g contracted to 6s4p3d1f1g pattern {711111/2111/211/2/1}

Atom   0C    basis set group =>   1
Atom   1C    basis set group =>   1
Atom   2C    basis set group =>   1
Atom   3C    basis set group =>   1
Atom   4C    basis set group =>   1
Atom   5C    basis set group =>   1
Atom   6H    basis set group =>   2
Atom   7H    basis set group =>   2
Atom   8H    basis set group =>   2
Atom   9H    basis set group =>   2
Atom  10H    basis set group =>   2
Atom  11C    basis set group =>   1
Atom  12C    basis set group =>   1
Atom  13H    basis set group =>   2
Atom  14H    basis set group =>   2
Atom  15C    basis set group =>   1
Atom  16H    basis set group =>   2
Atom  17H    basis set group =>   2
Atom  18C    basis set group =>   1
Atom  19C    basis set group =>   1
Atom  20C    basis set group =>   1
Atom  21C    basis set group =>   1
Atom  22C    basis set group =>   1
Atom  23H    basis set group =>   2
Atom  24H    basis set group =>   2
Atom  25H    basis set group =>   2
Atom  26H    basis set group =>   2
Atom  27Pd   basis set group =>   3
Atom  28Br   basis set group =>   4
Atom  29P    basis set group =>   5
Atom  30H    basis set group =>   2
Atom  31C    basis set group =>   1
Atom  32O    basis set group =>   6
Atom  33O    basis set group =>   6
Atom  34O    basis set group =>   6
Atom  35H    basis set group =>   2
Atom  36H    basis set group =>   2
Atom  37H    basis set group =>   2
-------------------------
ECP PARAMETER INFORMATION
-------------------------

 Group 1, Type Pd ECP Def2-ECP (replacing 28 core electrons, lmax=3)

Atom  27Pd   ECP group =>   1

------------------------------------------------------------------------------
                           ORCA GTO INTEGRAL CALCULATION
                           -- RI-GTO INTEGRALS CHOSEN --
------------------------------------------------------------------------------
------------------------------------------------------------------------------
                   ___                                                        
                  /   \      - P O W E R E D   B Y -                         
                 /     \                                                     
                 |  |  |   _    _      __       _____    __    __             
                 |  |  |  | |  | |    /  \     |  _  \  |  |  /  |          
                  \  \/   | |  | |   /    \    | | | |  |  | /  /          
                 / \  \   | |__| |  /  /\  \   | |_| |  |  |/  /          
                |  |  |   |  __  | /  /__\  \  |    /   |      \           
                |  |  |   | |  | | |   __   |  |    \   |  |\   \          
                \     /   | |  | | |  |  |  |  | |\  \  |  | \   \       
                 \___/    |_|  |_| |__|  |__|  |_| \__\ |__|  \__/        
                                                                              
                      - O R C A' S   B I G   F R I E N D -                    
                                      &                                       
                       - I N T E G R A L  F E E D E R -                       
                                                                              
 v1 FN, 2020, v2 2021                                                         
------------------------------------------------------------------------------


Reading SHARK input file 8_1_orca.SHARKINP.tmp ... ok
----------------------
SHARK INTEGRAL PACKAGE
----------------------

Number of atoms                             ...     38
Number of basis functions                   ...    385
Number of shells                            ...    191
Maximum angular momentum                    ...      3
Integral batch strategy                     ... SHARK/LIBINT Hybrid
RI-J (if used) integral strategy            ... SPLIT-RIJ (Revised 2003 algorithm where possible)
Printlevel                                  ...      1
Contraction scheme used                     ... SEGMENTED contraction
Coulomb Range Separation                    ... NOT USED
Exchange Range Separation                   ... NOT USED
Finite Nucleus Model                        ... NOT USED
Auxiliary Coulomb fitting basis             ... AVAILABLE
   # of basis functions in Aux-J            ...   1267
   # of shells in Aux-J                     ...    413
   Maximum angular momentum in Aux-J        ...      4
Auxiliary J/K fitting basis                 ... NOT available
Auxiliary Correlation fitting basis         ... NOT available
Auxiliary 'external' fitting basis          ... NOT available
Integral threshold                          ...     2.500000e-11
Primitive cut-off                           ...     2.500000e-12
Primitive pair pre-selection threshold      ...     2.500000e-12

Calculating pre-screening integrals         ... done (  0.1 sec) Dimension = 191
Organizing shell pair data                  ... done (  0.1 sec)
Shell pair information
Total number of shell pairs                 ...     18336
Shell pairs after pre-screening             ...     12345
Total number of primitive shell pairs       ...     68628
Primitive shell pairs kept                  ...     28207
          la=0 lb=0:   4364 shell pairs
          la=1 lb=0:   4140 shell pairs
          la=1 lb=1:    941 shell pairs
          la=2 lb=0:   1724 shell pairs
          la=2 lb=1:    851 shell pairs
          la=2 lb=2:    184 shell pairs
          la=3 lb=0:     76 shell pairs
          la=3 lb=1:     44 shell pairs
          la=3 lb=2:     20 shell pairs
          la=3 lb=3:      1 shell pairs

Calculating one electron integrals          ... done (  0.1 sec)
Calculating ECP integrals                   ... done (  0.5 sec)
Calculating RI/J V-Matrix + Cholesky decomp.... done (  0.1 sec)
Calculating Nuclear repulsion               ... done (  0.0 sec) ENN=   2511.708746135772 Eh

SHARK setup successfully completed in   1.3 seconds

Maximum memory used throughout the entire GTOINT-calculation: 95.0 MB
-------------------------------------------------------------------------------
                                 ORCA SCF
-------------------------------------------------------------------------------

------------
SCF SETTINGS
------------
Hamiltonian:
 Density Functional     Method          .... DFT(GTOs)
 Exchange Functional    Exchange        .... PBE
   PBE kappa parameter   XKappa         ....  1.024500
   PBE mue parameter    XMuePBE         ....  0.123457
 Correlation Functional Correlation     .... PBE
   PBE beta parameter  CBetaPBE         ....  0.030000
 LDA part of GGA corr.  LDAOpt          .... PW91-LDA
 Gradients option       PostSCFGGA      .... off
 Hybrid DFT is turned on
   Fraction HF Exchange ScalHFX         ....  0.420000
   Scaling of DF-GGA-X  ScalDFX         ....  0.580000
   Scaling of DF-GGA-C  ScalDFC         ....  1.000000
   Scaling of DF-LDA-C  ScalLDAC        ....  1.000000
   Perturbative correction              ....  0.000000
   Density functional embedding theory  .... OFF
 RI-approximation to the Coulomb term is turned on
   Number of AuxJ basis functions       .... 1267
   RIJ-ON(X) (HFX calculated with O(N)) .... on
   Number of AuxJ basis functions       .... 1267
   RIJ-COSX (HFX calculated with COS-X)).... on


General Settings:
 Integral files         IntName         .... 8_1_orca
 Hartree-Fock type      HFTyp           .... RHF
 Total Charge           Charge          ....   -1
 Multiplicity           Mult            ....    1
 Number of Electrons    NEL             ....  200
 Basis Dimension        Dim             ....  385
 Nuclear Repulsion      ENuc            ....   2511.7087461358 Eh

Convergence Acceleration:
 DIIS                   CNVDIIS         .... on
   Start iteration      DIISMaxIt       ....    12
   Startup error        DIISStart       ....  0.200000
   # of expansion vecs  DIISMaxEq       ....     5
   Bias factor          DIISBfac        ....   1.050
   Max. coefficient     DIISMaxC        ....  10.000
 Trust-Rad. Augm. Hess. CNVTRAH         .... auto
   Auto Start mean grad. ratio tolernc. ....  1.125000
   Auto Start start iteration           ....    20
   Auto Start num. interpolation iter.  ....    10
   Max. Number of Micro iterations      ....    16
   Max. Number of Macro iterations      .... Maxiter - #DIIS iter
   Number of Davidson start vectors     ....     2
   Converg. threshold I  (grad. norm)   ....   1.000e-05
   Converg. threshold II (energy diff.) ....   1.000e-08
   Grad. Scal. Fac. for Micro threshold ....   0.100
   Minimum threshold for Micro iter.    ....   0.010
   NR start threshold (gradient norm)   ....   0.001
   Initial trust radius                 ....   0.400
   Minimum AH scaling param. (alpha)    ....   1.000
   Maximum AH scaling param. (alpha)    .... 1000.000
   Orbital update algorithm             .... Taylor
   White noise on init. David. guess    .... on
   Maximum white noise                  ....   0.010
   Quad. conv. algorithm                .... NR
   COSX micro iterations for RIJONX calc.... off
 SOSCF                  CNVSOSCF        .... off
 Level Shifting         CNVShift        .... on
   Level shift para.    LevelShift      ....    0.2500
   Turn off err/grad.   ShiftErr        ....    0.0010
 Zerner damping         CNVZerner       .... off
 Static damping         CNVDamp         .... on
   Fraction old density DampFac         ....    0.7000
   Max. Damping (<1)    DampMax         ....    0.9800
   Min. Damping (>=0)   DampMin         ....    0.0000
   Turn off err/grad.   DampErr         ....    0.1000
 Fernandez-Rico         CNVRico         .... off

SCF Procedure:
 Maximum # iterations   MaxIter         ....   250
 SCF integral mode      SCFMode         .... Direct
   Integral package                     .... SHARK and LIBINT hybrid scheme
 Reset frequency        DirectResetFreq ....    20
 Integral Threshold     Thresh          ....  2.500e-11 Eh
 Primitive CutOff       TCut            ....  2.500e-12 Eh

Convergence Tolerance:
 Convergence Check Mode ConvCheckMode   .... Total+1el-Energy
 Convergence forced     ConvForced      .... 0
 Energy Change          TolE            ....  1.000e-08 Eh
 1-El. energy change                    ....  1.000e-05 Eh
 DIIS Error             TolErr          ....  5.000e-07


Diagonalization of the overlap matrix:
Smallest eigenvalue                        ... 4.347e-04
Time for diagonalization                   ...    0.025 sec
Threshold for overlap eigenvalues          ... 1.000e-08
Number of eigenvalues below threshold      ... 0
Time for construction of square roots      ...    0.008 sec
Total time needed                          ...    0.033 sec

--------------------------------
INITIAL GUESS: MINIMAL BASIS EHT
--------------------------------
The minimal basis has 147 functions
EHT matrix was diagonalized
Basis set overlap was calculated now projecting the orbitals
Using GuessMode=FMatrix for the initial guess
C*T matrix was formed
Effective Fockian was calculated
Effective Fockian was diagonalized
Initial density was built
                      ------------------
                      INITIAL GUESS DONE
                      ------------------
-------------------
DFT GRID GENERATION
-------------------

General Integration Accuracy     IntAcc      ... 4.159
Radial Grid Type                 RadialGrid  ... OptM3 with GC (2021)
Angular Grid (max. ang.)         AngularGrid ... 3 (Lebedev-194)
Angular grid pruning method      GridPruning ... 4 (adaptive)
Weight generation scheme         WeightScheme... Becke
Basis function cutoff            BFCut       ... 1.0000e-11
Integration weight cutoff        WCut        ... 1.0000e-14
Angular grids for H and He will be reduced by one unit
Partially contracted basis set               ... off
Rotationally invariant grid construction     ... off

Total number of grid points                  ...    96771
Total number of batches                      ...     1526
Average number of points per batch           ...       63
Average number of grid points per atom       ...     2547
Time for grid setup =    2.132 sec

--------------------
COSX GRID GENERATION
--------------------

GRIDX 1
-------
General Integration Accuracy     IntAcc      ... 3.816
Radial Grid Type                 RadialGrid  ... OptM3 with GC (2021)
Angular Grid (max. ang.)         AngularGrid ... 1 (Lebedev-50)
Angular grid pruning method      GridPruning ... 4 (adaptive)
Weight generation scheme         WeightScheme... Becke
Basis function cutoff            BFCut       ... 1.0000e-11
Integration weight cutoff        WCut        ... 1.0000e-14
Angular grids for H and He will be reduced by one unit
Partially contracted basis set               ... on
Rotationally invariant grid construction     ... off

Total number of grid points                  ...    23663
Total number of batches                      ...      385
Average number of points per batch           ...       61
Average number of grid points per atom       ...      623
UseSFitting                                  ... on

GRIDX 2
-------
General Integration Accuracy     IntAcc      ... 4.020
Radial Grid Type                 RadialGrid  ... OptM3 with GC (2021)
Angular Grid (max. ang.)         AngularGrid ... 2 (Lebedev-110)
Angular grid pruning method      GridPruning ... 4 (adaptive)
Weight generation scheme         WeightScheme... Becke
Basis function cutoff            BFCut       ... 1.0000e-11
Integration weight cutoff        WCut        ... 1.0000e-14
Angular grids for H and He will be reduced by one unit
Partially contracted basis set               ... on
Rotationally invariant grid construction     ... off

Total number of grid points                  ...    51247
Total number of batches                      ...      819
Average number of points per batch           ...       62
Average number of grid points per atom       ...     1349
UseSFitting                                  ... on

GRIDX 3
-------
General Integration Accuracy     IntAcc      ... 4.338
Radial Grid Type                 RadialGrid  ... OptM3 with GC (2021)
Angular Grid (max. ang.)         AngularGrid ... 3 (Lebedev-194)
Angular grid pruning method      GridPruning ... 4 (adaptive)
Weight generation scheme         WeightScheme... Becke
Basis function cutoff            BFCut       ... 1.0000e-11
Integration weight cutoff        WCut        ... 1.0000e-14
Angular grids for H and He will be reduced by one unit
Partially contracted basis set               ... on
Rotationally invariant grid construction     ... off

Total number of grid points                  ...   111838
Total number of batches                      ...     1768
Average number of points per batch           ...       63
Average number of grid points per atom       ...     2943
UseSFitting                                  ... on

Time for X-Grid setup             =    5.374 sec

--------------
SCF ITERATIONS
--------------
ITER       Energy         Delta-E        Max-DP      RMS-DP      [F,P]     Damp
               ***  Starting incremental Fock matrix formation  ***
  0  -3826.7872272627   0.000000000000 5.42377383  0.04990456  5.1109451 0.7000
  1  -3818.3104677122   8.476759550545 5.09074400  0.05193361  3.9349561 0.7000
  2  -3823.8043081950  -5.493840482857 2.10202910  0.02188541  2.6167658 0.7000
  3  -3828.9617087039  -5.157400508818 3.30393256  0.02193633  1.9194031 0.7000
  4  -3832.4085734436  -3.446864739783 2.17047802  0.01523472  1.2478887 0.7000
  5  -3836.5039046393  -4.095331195676 1.46614538  0.01088256  0.9667918 0.7000
  6  -3839.7361297705  -3.232225131223 1.00849751  0.00772739  0.7052230 0.7000
  7  -3842.0277302555  -2.291600484994 0.71975025  0.00549711  0.4980332 0.7000
  8  -3843.6529274125  -1.625197156960 0.51656160  0.00389473  0.3457863 0.7000
  9  -3844.8063688872  -1.153441474667 0.36787046  0.00275141  0.2404366 0.7000
                               ***Turning on DIIS***
 10  -3845.6227794366  -0.816410549426 0.25988169  0.00194153  0.1685858 0.7000
 11  -3846.1987548292  -0.575975392580 0.18340598  0.00137908  0.1188434 0.7000
 12  -3846.6042947422  -0.405539912986 0.42866971  0.00325279  0.0831071 0.0000
 13  -3847.5588711142  -0.954576372051 0.00468915  0.00008545  0.0023424 0.0000
 14  -3847.5591471694  -0.000276055173 0.00270230  0.00005520  0.0013855 0.0000
 15  -3847.5592548600  -0.000107690584 0.00212146  0.00004150  0.0010808 0.0000
 16  -3847.5593112518  -0.000056391869 0.00322291  0.00005324  0.0005426 0.0000
               *** Restarting incremental Fock matrix formation ***
                                   *** Resetting DIIS ***
 17  -3847.5593581201  -0.000046868244 0.00235305  0.00004122  0.0005320 0.0000
 18  -3847.5593595871  -0.000001467025 0.00057728  0.00000843  0.0011001 0.0000
 19  -3847.5593645774  -0.000004990331 0.00044776  0.00000770  0.0001432 0.0000
 20  -3847.5593653052  -0.000000727814 0.00025444  0.00000342  0.0001109 0.0000
 21  -3847.5593655654  -0.000000260109 0.00026260  0.00000200  0.0001035 0.0000
 22  -3847.5593656512  -0.000000085827 0.00011959  0.00000125  0.0000620 0.0000
 23  -3847.5593656849  -0.000000033690 0.00006879  0.00000064  0.0000265 0.0000
 24  -3847.5593656940  -0.000000009165 0.00001296  0.00000018  0.0000103 0.0000
 25  -3847.5593656918   0.000000002262 0.00002657  0.00000024  0.0000060 0.0000
 26  -3847.5593657112  -0.000000019475 0.00000350  0.00000004  0.0000011 0.0000
                            ***DIIS convergence achieved***

               *****************************************************
               *                     SUCCESS                       *
               *           SCF CONVERGED AFTER  27 CYCLES          *
               *****************************************************

Old exchange energy                            =    -97.640784521 Eh
New exchange energy                            =    -97.640823294 Eh
Exchange energy change after final integration =     -0.000038773 Eh
Total energy after final integration           =  -3847.559404485 Eh
Final COS-X integration done in                =    70.996 sec

----------------
TOTAL SCF ENERGY
----------------

Total Energy       :        -3847.55940448 Eh         -104697.41411 eV

Components:
Nuclear Repulsion  :         2511.70874614 Eh           68347.06968 eV
Electronic Energy  :        -6359.26815062 Eh         -173044.48379 eV
One Electron Energy:       -10407.46054020 Eh         -283201.39898 eV
Two Electron Energy:         4048.19238958 Eh          110156.91519 eV
Max COSX asymmetry :            0.00002669 Eh               0.00073 eV

Virial components:
Potential Energy   :        -7606.08628378 Eh         -206972.13004 eV
Kinetic Energy     :         3758.52687929 Eh          102274.71593 eV
Virial Ratio       :            2.02368814


DFT components:
N(Alpha)           :      100.000414747070 electrons
N(Beta)            :      100.000414747070 electrons
N(Total)           :      200.000829494140 electrons
E(X)               :     -130.729658587604 Eh       
E(C)               :       -9.691563938799 Eh       
E(XC)              :     -140.421222526403 Eh       
DFET-embed. en.    :        0.000000000000 Eh       

---------------
SCF CONVERGENCE
---------------

  Last Energy change         ...   -5.2887e-10  Tolerance :   1.0000e-08
  Last MAX-Density change    ...    0.0000e+00  Tolerance :   1.0000e-07
  Last RMS-Density change    ...    0.0000e+00  Tolerance :   5.0000e-09
  Last DIIS Error            ...    8.1788e-07  Tolerance :   5.0000e-07

             **** THE GBW FILE WAS UPDATED (8_1_orca.gbw) ****
             **** DENSITY 8_1_orca.scfp WAS UPDATED ****
             **** ENERGY FILE WAS UPDATED (8_1_orca.en.tmp) ****
             **** THE GBW FILE WAS UPDATED (8_1_orca.gbw) ****
             **** DENSITY 8_1_orca.scfp WAS UPDATED ****
----------------
ORBITAL ENERGIES
----------------

  NO   OCC          E(Eh)            E(eV) 
   0   2.0000    -484.385245    -13180.7926 
   1   2.0000     -77.664176     -2113.3497 
   2   2.0000     -63.046085     -1715.5712 
   3   2.0000     -56.749513     -1544.2328 
   4   2.0000     -56.749060     -1544.2204 
   5   2.0000     -56.748529     -1544.2060 
   6   2.0000     -19.393638      -527.7277 
   7   2.0000     -19.377342      -527.2843 
   8   2.0000     -19.316986      -525.6419 
   9   2.0000     -10.472105      -284.9605 
  10   2.0000     -10.345458      -281.5142 
  11   2.0000     -10.340386      -281.3762 
  12   2.0000     -10.338706      -281.3305 
  13   2.0000     -10.337713      -281.3035 
  14   2.0000     -10.336983      -281.2836 
  15   2.0000     -10.326893      -281.0091 
  16   2.0000     -10.326410      -280.9959 
  17   2.0000     -10.324269      -280.9376 
  18   2.0000     -10.321841      -280.8716 
  19   2.0000     -10.318924      -280.7922 
  20   2.0000     -10.316686      -280.7313 
  21   2.0000     -10.315323      -280.6942 
  22   2.0000     -10.313263      -280.6382 
  23   2.0000     -10.312844      -280.6268 
  24   2.0000      -8.872815      -241.4416 
  25   2.0000      -6.740821      -183.4271 
  26   2.0000      -6.642724      -180.7577 
  27   2.0000      -6.638432      -180.6409 
  28   2.0000      -6.635438      -180.5594 
  29   2.0000      -4.831846      -131.4812 
  30   2.0000      -4.831410      -131.4694 
  31   2.0000      -4.829801      -131.4256 
  32   2.0000      -3.514617       -95.6376 
  33   2.0000      -2.656926       -72.2986 
  34   2.0000      -2.656266       -72.2807 
  35   2.0000      -2.653779       -72.2130 
  36   2.0000      -2.650031       -72.1110 
  37   2.0000      -2.649786       -72.1043 
  38   2.0000      -2.162095       -58.8336 
  39   2.0000      -2.153509       -58.6000 
  40   2.0000      -2.131249       -57.9942 
  41   2.0000      -1.082276       -29.4502 
  42   2.0000      -0.987954       -26.8836 
  43   2.0000      -0.917648       -24.9705 
  44   2.0000      -0.846712       -23.0402 
  45   2.0000      -0.818945       -22.2846 
  46   2.0000      -0.773868       -21.0580 
  47   2.0000      -0.725626       -19.7453 
  48   2.0000      -0.719419       -19.5764 
  49   2.0000      -0.690115       -18.7790 
  50   2.0000      -0.686147       -18.6710 
  51   2.0000      -0.673591       -18.3294 
  52   2.0000      -0.643991       -17.5239 
  53   2.0000      -0.603082       -16.4107 
  54   2.0000      -0.564748       -15.3676 
  55   2.0000      -0.552078       -15.0228 
  56   2.0000      -0.545615       -14.8469 
  57   2.0000      -0.538372       -14.6498 
  58   2.0000      -0.506350       -13.7785 
  59   2.0000      -0.460769       -12.5382 
  60   2.0000      -0.443239       -12.0612 
  61   2.0000      -0.431355       -11.7378 
  62   2.0000      -0.417263       -11.3543 
  63   2.0000      -0.407812       -11.0971 
  64   2.0000      -0.395116       -10.7517 
  65   2.0000      -0.386331       -10.5126 
  66   2.0000      -0.383126       -10.4254 
  67   2.0000      -0.377376       -10.2689 
  68   2.0000      -0.375870       -10.2279 
  69   2.0000      -0.372189       -10.1278 
  70   2.0000      -0.363748        -9.8981 
  71   2.0000      -0.354203        -9.6384 
  72   2.0000      -0.345999        -9.4151 
  73   2.0000      -0.332366        -9.0441 
  74   2.0000      -0.328147        -8.9293 
  75   2.0000      -0.321349        -8.7443 
  76   2.0000      -0.317030        -8.6268 
  77   2.0000      -0.305250        -8.3063 
  78   2.0000      -0.295477        -8.0403 
  79   2.0000      -0.289716        -7.8836 
  80   2.0000      -0.283963        -7.7270 
  81   2.0000      -0.271413        -7.3855 
  82   2.0000      -0.262743        -7.1496 
  83   2.0000      -0.253707        -6.9037 
  84   2.0000      -0.251168        -6.8346 
  85   2.0000      -0.246523        -6.7082 
  86   2.0000      -0.241103        -6.5607 
  87   2.0000      -0.221134        -6.0174 
  88   2.0000      -0.215112        -5.8535 
  89   2.0000      -0.208579        -5.6757 
  90   2.0000      -0.200478        -5.4553 
  91   2.0000      -0.192612        -5.2412 
  92   2.0000      -0.187454        -5.1009 
  93   2.0000      -0.173177        -4.7124 
  94   2.0000      -0.170764        -4.6467 
  95   2.0000      -0.167845        -4.5673 
  96   2.0000      -0.161805        -4.4029 
  97   2.0000      -0.150963        -4.1079 
  98   2.0000      -0.148876        -4.0511 
  99   2.0000      -0.118512        -3.2249 
 100   0.0000      -0.005833        -0.1587 
 101   0.0000       0.071795         1.9537 
 102   0.0000       0.123773         3.3680 
 103   0.0000       0.132277         3.5995 
 104   0.0000       0.146088         3.9753 
 105   0.0000       0.149273         4.0619 
 106   0.0000       0.160427         4.3654 
 107   0.0000       0.165412         4.5011 
 108   0.0000       0.191676         5.2158 
 109   0.0000       0.202764         5.5175 
 110   0.0000       0.221024         6.0144 
 111   0.0000       0.225975         6.1491 
 112   0.0000       0.232362         6.3229 
 113   0.0000       0.245420         6.6782 
 114   0.0000       0.269623         7.3368 
 115   0.0000       0.273459         7.4412 
 116   0.0000       0.279668         7.6102 
 117   0.0000       0.289654         7.8819 
 118   0.0000       0.303961         8.2712 
 119   0.0000       0.308831         8.4037 
 120   0.0000       0.312324         8.4988 
 121   0.0000       0.316445         8.6109 
 122   0.0000       0.328543         8.9401 
 123   0.0000       0.333885         9.0855 
 124   0.0000       0.335886         9.1399 
 125   0.0000       0.343628         9.3506 
 126   0.0000       0.355801         9.6818 
 127   0.0000       0.369611        10.0576 
 128   0.0000       0.371604        10.1119 
 129   0.0000       0.379304        10.3214 
 130   0.0000       0.392444        10.6790 
 131   0.0000       0.396982        10.8024 
 132   0.0000       0.406576        11.0635 
 133   0.0000       0.413771        11.2593 
 134   0.0000       0.429137        11.6774 
 135   0.0000       0.434530        11.8242 
 136   0.0000       0.442561        12.0427 
 137   0.0000       0.453317        12.3354 
 138   0.0000       0.463402        12.6098 
 139   0.0000       0.471299        12.8247 
 140   0.0000       0.474525        12.9125 
 141   0.0000       0.482292        13.1238 
 142   0.0000       0.504736        13.7346 
 143   0.0000       0.505565        13.7571 
 144   0.0000       0.525515        14.3000 
 145   0.0000       0.548188        14.9170 
 146   0.0000       0.561967        15.2919 
 147   0.0000       0.567750        15.4493 
 148   0.0000       0.570956        15.5365 
 149   0.0000       0.579063        15.7571 
 150   0.0000       0.585006        15.9188 
 151   0.0000       0.601114        16.3571 
 152   0.0000       0.620199        16.8765 
 153   0.0000       0.624895        17.0043 
 154   0.0000       0.635666        17.2973 
 155   0.0000       0.638942        17.3865 
 156   0.0000       0.652736        17.7619 
 157   0.0000       0.656396        17.8614 
 158   0.0000       0.659493        17.9457 
 159   0.0000       0.663887        18.0653 
 160   0.0000       0.676378        18.4052 
 161   0.0000       0.681844        18.5539 
 162   0.0000       0.688758        18.7421 
 163   0.0000       0.696266        18.9464 
 164   0.0000       0.699323        19.0296 
 165   0.0000       0.705322        19.1928 
 166   0.0000       0.712599        19.3908 
 167   0.0000       0.716636        19.5006 
 168   0.0000       0.721578        19.6351 
 169   0.0000       0.725401        19.7392 
 170   0.0000       0.728746        19.8302 
 171   0.0000       0.734323        19.9819 
 172   0.0000       0.739843        20.1321 
 173   0.0000       0.742732        20.2108 
 174   0.0000       0.748993        20.3811 
 175   0.0000       0.751959        20.4618 
 176   0.0000       0.754360        20.5272 
 177   0.0000       0.756488        20.5851 
 178   0.0000       0.761923        20.7330 
 179   0.0000       0.770242        20.9593 
 180   0.0000       0.783015        21.3069 
 181   0.0000       0.786574        21.4038 
 182   0.0000       0.789139        21.4736 
 183   0.0000       0.801477        21.8093 
 184   0.0000       0.809177        22.0188 
 185   0.0000       0.820936        22.3388 
 186   0.0000       0.828973        22.5575 
 187   0.0000       0.832667        22.6580 
 188   0.0000       0.841178        22.8896 
 189   0.0000       0.849330        23.1114 
 190   0.0000       0.854649        23.2562 
 191   0.0000       0.870584        23.6898 
 192   0.0000       0.876849        23.8603 
 193   0.0000       0.883699        24.0467 
 194   0.0000       0.890712        24.2375 
 195   0.0000       0.902788        24.5661 
 196   0.0000       0.907752        24.7012 
 197   0.0000       0.922847        25.1119 
 198   0.0000       0.928502        25.2658 
 199   0.0000       0.937467        25.5098 
 200   0.0000       0.955919        26.0119 
 201   0.0000       0.964763        26.2525 
 202   0.0000       0.978503        26.6264 
 203   0.0000       0.986975        26.8569 
 204   0.0000       1.004864        27.3437 
 205   0.0000       1.015696        27.6385 
 206   0.0000       1.033689        28.1281 
 207   0.0000       1.045821        28.4582 
 208   0.0000       1.050539        28.5866 
 209   0.0000       1.066849        29.0304 
 210   0.0000       1.073368        29.2078 
 211   0.0000       1.075358        29.2620 
 212   0.0000       1.092086        29.7172 
 213   0.0000       1.094546        29.7841 
 214   0.0000       1.098056        29.8796 
 215   0.0000       1.104904        30.0660 
 216   0.0000       1.110919        30.2297 
 217   0.0000       1.121252        30.5108 
 218   0.0000       1.124626        30.6026 
 219   0.0000       1.129566        30.7371 
 220   0.0000       1.136708        30.9314 
 221   0.0000       1.148775        31.2598 
 222   0.0000       1.163456        31.6592 
 223   0.0000       1.171536        31.8791 
 224   0.0000       1.176747        32.0209 
 225   0.0000       1.187727        32.3197 
 226   0.0000       1.188994        32.3542 
 227   0.0000       1.198702        32.6183 
 228   0.0000       1.206925        32.8421 
 229   0.0000       1.211049        32.9543 
 230   0.0000       1.212566        32.9956 
 231   0.0000       1.216676        33.1074 
 232   0.0000       1.229396        33.4536 
 233   0.0000       1.239487        33.7282 
 234   0.0000       1.246222        33.9114 
 235   0.0000       1.251399        34.0523 
 236   0.0000       1.257787        34.2261 
 237   0.0000       1.269928        34.5565 
 238   0.0000       1.278005        34.7763 
 239   0.0000       1.304924        35.5088 
 240   0.0000       1.321467        35.9589 
 241   0.0000       1.323137        36.0044 
 242   0.0000       1.326479        36.0953 
 243   0.0000       1.339946        36.4618 
 244   0.0000       1.353213        36.8228 
 245   0.0000       1.371242        37.3134 
 246   0.0000       1.384021        37.6611 
 247   0.0000       1.398046        38.0428 
 248   0.0000       1.407469        38.2992 
 249   0.0000       1.417066        38.5603 
 250   0.0000       1.432624        38.9837 
 251   0.0000       1.436665        39.0936 
 252   0.0000       1.438804        39.1518 
 253   0.0000       1.459395        39.7121 
 254   0.0000       1.473873        40.1061 
 255   0.0000       1.479290        40.2535 
 256   0.0000       1.488576        40.5062 
 257   0.0000       1.546118        42.0720 
 258   0.0000       1.562345        42.5136 
 259   0.0000       1.571891        42.7733 
 260   0.0000       1.591797        43.3150 
 261   0.0000       1.612661        43.8827 
 262   0.0000       1.641989        44.6808 
 263   0.0000       1.653036        44.9814 
 264   0.0000       1.663517        45.2666 
 265   0.0000       1.676111        45.6093 
 266   0.0000       1.691904        46.0390 
 267   0.0000       1.703840        46.3639 
 268   0.0000       1.708745        46.4973 
 269   0.0000       1.717946        46.7477 
 270   0.0000       1.753344        47.7109 
 271   0.0000       1.776212        48.3332 
 272   0.0000       1.794356        48.8269 
 273   0.0000       1.819613        49.5142 
 274   0.0000       1.852395        50.4062 
 275   0.0000       1.899710        51.6937 
 276   0.0000       1.920629        52.2630 
 277   0.0000       1.924931        52.3800 
 278   0.0000       1.929928        52.5160 
 279   0.0000       1.966378        53.5079 
 280   0.0000       1.975241        53.7490 
 281   0.0000       1.989111        54.1265 
 282   0.0000       2.010929        54.7202 
 283   0.0000       2.028711        55.2040 
 284   0.0000       2.037131        55.4332 
 285   0.0000       2.038298        55.4649 
 286   0.0000       2.053256        55.8719 
 287   0.0000       2.057550        55.9888 
 288   0.0000       2.079420        56.5839 
 289   0.0000       2.088628        56.8344 
 290   0.0000       2.101571        57.1866 
 291   0.0000       2.114786        57.5463 
 292   0.0000       2.128336        57.9150 
 293   0.0000       2.134105        58.0719 
 294   0.0000       2.143964        58.3402 
 295   0.0000       2.161695        58.8227 
 296   0.0000       2.176580        59.2278 
 297   0.0000       2.194915        59.7267 
 298   0.0000       2.203622        59.9636 
 299   0.0000       2.231336        60.7177 
 300   0.0000       2.248510        61.1851 
 301   0.0000       2.254090        61.3369 
 302   0.0000       2.300021        62.5868 
 303   0.0000       2.304640        62.7124 
 304   0.0000       2.314974        62.9936 
 305   0.0000       2.326222        63.2997 
 306   0.0000       2.334668        63.5295 
 307   0.0000       2.337321        63.6017 
 308   0.0000       2.346812        63.8600 
 309   0.0000       2.359307        64.2000 
 310   0.0000       2.365758        64.3756 
 311   0.0000       2.373678        64.5910 
 312   0.0000       2.392821        65.1120 
 313   0.0000       2.406584        65.4865 
 314   0.0000       2.437198        66.3195 
 315   0.0000       2.470234        67.2185 
 316   0.0000       2.479201        67.4625 
 317   0.0000       2.495704        67.9116 
 318   0.0000       2.502557        68.0980 
 319   0.0000       2.517108        68.4940 
 320   0.0000       2.537407        69.0464 
 321   0.0000       2.550858        69.4124 
 322   0.0000       2.568370        69.8889 
 323   0.0000       2.594740        70.6065 
 324   0.0000       2.600960        70.7757 
 325   0.0000       2.607660        70.9580 
 326   0.0000       2.623854        71.3987 
 327   0.0000       2.629707        71.5580 
 328   0.0000       2.636699        71.7482 
 329   0.0000       2.663158        72.4682 
 330   0.0000       2.684474        73.0482 
 331   0.0000       2.697192        73.3943 
 332   0.0000       2.716197        73.9115 
 333   0.0000       2.730110        74.2901 
 334   0.0000       2.744001        74.6681 
 335   0.0000       2.763746        75.2054 
 336   0.0000       2.776867        75.5624 
 337   0.0000       2.790059        75.9214 
 338   0.0000       2.824267        76.8522 
 339   0.0000       2.844316        77.3978 
 340   0.0000       2.853839        77.6569 
 341   0.0000       2.857490        77.7563 
 342   0.0000       2.873183        78.1833 
 343   0.0000       2.896469        78.8169 
 344   0.0000       2.901858        78.9636 
 345   0.0000       2.910471        79.1979 
 346   0.0000       2.934117        79.8414 
 347   0.0000       2.952798        80.3497 
 348   0.0000       2.960460        80.5582 
 349   0.0000       2.968068        80.7652 
 350   0.0000       2.997803        81.5744 
 351   0.0000       3.022847        82.2559 
 352   0.0000       3.031640        82.4951 
 353   0.0000       3.042325        82.7859 
 354   0.0000       3.176601        86.4397 
 355   0.0000       3.232809        87.9692 
 356   0.0000       3.248647        88.4002 
 357   0.0000       3.276967        89.1708 
 358   0.0000       3.324159        90.4550 
 359   0.0000       3.544435        96.4490 
 360   0.0000       3.563762        96.9749 
 361   0.0000       3.685241       100.2805 
 362   0.0000       3.695011       100.5464 
 363   0.0000       3.726233       101.3960 
 364   0.0000       3.749542       102.0302 
 365   0.0000       3.908680       106.3606 
 366   0.0000      13.410727       364.9244 
 367   0.0000      13.419974       365.1761 
 368   0.0000      13.762739       374.5032 
 369   0.0000      13.779467       374.9584 
 370   0.0000      13.831093       376.3632 
 371   0.0000      13.840791       376.6271 
 372   0.0000      14.029459       381.7610 
 373   0.0000      14.107827       383.8935 
 374   0.0000      14.194829       386.2609 
 375   0.0000      14.220000       386.9459 
 376   0.0000      14.250449       387.7744 
 377   0.0000      14.283222       388.6662 
 378   0.0000      14.313903       389.5011 
 379   0.0000      14.621482       397.8708 
 380   0.0000      14.648268       398.5996 
 381   0.0000      25.681088       698.8179 
 382   0.0000      25.780311       701.5179 
 383   0.0000      25.870981       703.9852 
 384   0.0000      51.710318      1407.1093 

                    ********************************
                    * MULLIKEN POPULATION ANALYSIS *
                    ********************************

-----------------------
MULLIKEN ATOMIC CHARGES
-----------------------
   0 C :   -0.102464
   1 C :    0.013415
   2 C :   -0.310567
   3 C :   -0.205357
   4 C :   -0.238883
   5 C :   -0.228066
   6 H :    0.320098
   7 H :    0.184374
   8 H :    0.171068
   9 H :    0.171740
  10 H :    0.170341
  11 C :   -0.454588
  12 C :   -0.521849
  13 H :    0.207323
  14 H :    0.225670
  15 C :    0.140604
  16 H :    0.273918
  17 H :    0.194544
  18 C :   -0.107913
  19 C :   -0.293763
  20 C :   -0.237237
  21 C :   -0.294044
  22 C :   -0.217996
  23 H :    0.262445
  24 H :    0.187491
  25 H :    0.177717
  26 H :    0.184054
  27 Pd:    0.110181
  28 Br:   -0.397398
  29 P :   -0.171144
  30 H :    0.107295
  31 C :    0.690286
  32 O :   -0.579576
  33 O :   -0.476044
  34 O :   -0.621924
  35 H :    0.097870
  36 H :    0.137580
  37 H :    0.430800
Sum of atomic charges:   -1.0000000

--------------------------------
MULLIKEN REDUCED ORBITAL CHARGES
--------------------------------
  0 C s       :     3.357494  s :     3.357494
      pz      :     0.837933  p :     2.710598
      px      :     0.950474
      py      :     0.922191
      dz2     :     0.005724  d :     0.034371
      dxz     :     0.006107
      dyz     :     0.006807
      dx2y2   :     0.011330
      dxy     :     0.004403
  1 C s       :     3.206336  s :     3.206336
      pz      :     0.948732  p :     2.734582
      px      :     0.883547
      py      :     0.902303
      dz2     :     0.007095  d :     0.045667
      dxz     :     0.010905
      dyz     :     0.006382
      dx2y2   :     0.009776
      dxy     :     0.011510
  2 C s       :     3.275234  s :     3.275234
      pz      :     1.023338  p :     2.995199
      px      :     0.951671
      py      :     1.020190
      dz2     :     0.003148  d :     0.040134
      dxz     :     0.007733
      dyz     :     0.005674
      dx2y2   :     0.011371
      dxy     :     0.012208
  3 C s       :     3.217637  s :     3.217637
      pz      :     1.003261  p :     2.946722
      px      :     0.990504
      py      :     0.952956
      dz2     :     0.006091  d :     0.040998
      dxz     :     0.006306
      dyz     :     0.006714
      dx2y2   :     0.013035
      dxy     :     0.008853
  4 C s       :     3.228186  s :     3.228186
      pz      :     0.998909  p :     2.969733
      px      :     0.972843
      py      :     0.997981
      dz2     :     0.006802  d :     0.040964
      dxz     :     0.007569
      dyz     :     0.005448
      dx2y2   :     0.008273
      dxy     :     0.012871
  5 C s       :     3.247415  s :     3.247415
      pz      :     1.022744  p :     2.941152
      px      :     0.917179
      py      :     1.001229
      dz2     :     0.003465  d :     0.039499
      dxz     :     0.007790
      dyz     :     0.007894
      dx2y2   :     0.011004
      dxy     :     0.009346
  6 H s       :     0.679902  s :     0.679902
  7 H s       :     0.815626  s :     0.815626
  8 H s       :     0.828932  s :     0.828932
  9 H s       :     0.828260  s :     0.828260
 10 H s       :     0.829659  s :     0.829659
 11 C s       :     3.331471  s :     3.331471
      pz      :     1.069748  p :     3.079593
      px      :     0.938672
      py      :     1.071174
      dz2     :     0.013295  d :     0.043524
      dxz     :     0.008603
      dyz     :     0.001775
      dx2y2   :     0.010856
      dxy     :     0.008994
 12 C s       :     3.370345  s :     3.370345
      pz      :     1.013436  p :     3.107345
      px      :     0.982892
      py      :     1.111017
      dz2     :     0.009379  d :     0.044160
      dxz     :     0.013592
      dyz     :     0.003330
      dx2y2   :     0.009974
      dxy     :     0.007885
 13 H s       :     0.792677  s :     0.792677
 14 H s       :     0.774330  s :     0.774330
 15 C s       :     3.159063  s :     3.159063
      pz      :     0.857283  p :     2.653939
      px      :     0.900360
      py      :     0.896296
      dz2     :     0.012615  d :     0.046394
      dxz     :     0.012080
      dyz     :     0.008191
      dx2y2   :     0.006632
      dxy     :     0.006875
 16 H s       :     0.726082  s :     0.726082
 17 H s       :     0.805456  s :     0.805456
 18 C s       :     3.323168  s :     3.323168
      pz      :     0.861882  p :     2.743263
      px      :     0.928023
      py      :     0.953358
      dz2     :     0.009405  d :     0.041482
      dxz     :     0.011531
      dyz     :     0.009016
      dx2y2   :     0.007126
      dxy     :     0.004405
 19 C s       :     3.262316  s :     3.262316
      pz      :     1.080470  p :     2.991230
      px      :     0.932463
      py      :     0.978296
      dz2     :     0.009642  d :     0.040217
      dxz     :     0.007308
      dyz     :     0.009432
      dx2y2   :     0.007098
      dxy     :     0.006737
 20 C s       :     3.244393  s :     3.244393
      pz      :     0.977393  p :     2.951829
      px      :     0.996054
      py      :     0.978382
      dz2     :     0.008839  d :     0.041014
      dxz     :     0.012730
      dyz     :     0.007333
      dx2y2   :     0.006612
      dxy     :     0.005501
 21 C s       :     3.274073  s :     3.274073
      pz      :     1.009420  p :     2.979805
      px      :     0.968584
      py      :     1.001800
      dz2     :     0.011366  d :     0.040166
      dxz     :     0.009738
      dyz     :     0.006538
      dx2y2   :     0.006600
      dxy     :     0.005924
 22 C s       :     3.227086  s :     3.227086
      pz      :     0.920807  p :     2.949977
      px      :     1.033891
      py      :     0.995279
      dz2     :     0.011823  d :     0.040933
      dxz     :     0.009239
      dyz     :     0.009294
      dx2y2   :     0.002802
      dxy     :     0.007775
 23 H s       :     0.737555  s :     0.737555
 24 H s       :     0.812509  s :     0.812509
 25 H s       :     0.822283  s :     0.822283
 26 H s       :     0.815946  s :     0.815946
 27 Pds       :     2.551662  s :     2.551662
      pz      :     2.084967  p :     6.304690
      px      :     2.115142
      py      :     2.104580
      dz2     :     1.940857  d :     9.031324
      dxz     :     1.947347
      dyz     :     1.969986
      dx2y2   :     1.951068
      dxy     :     1.222066
      f0      :     0.000155  f :     0.002144
      f+1     :     0.000259
      f-1     :     0.000281
      f+2     :     0.000039
      f-2     :     0.000173
      f+3     :     0.000595
      f-3     :     0.000641
 28 Brs       :     7.972362  s :     7.972362
      pz      :     5.725892  p :    17.415388
      px      :     5.876425
      py      :     5.813071
      dz2     :     2.001808  d :    10.009648
      dxz     :     2.001084
      dyz     :     2.002391
      dx2y2   :     2.001929
      dxy     :     2.002436
 29 P s       :     5.611645  s :     5.611645
      pz      :     2.990953  p :     9.375119
      px      :     3.142229
      py      :     3.241937
      dz2     :     0.036488  d :     0.184380
      dxz     :     0.004730
      dyz     :     0.063712
      dx2y2   :     0.067129
      dxy     :     0.012320
 30 H s       :     0.892705  s :     0.892705
 31 C s       :     2.816747  s :     2.816747
      pz      :     0.770068  p :     2.323298
      px      :     0.802851
      py      :     0.750379
      dz2     :     0.019339  d :     0.169669
      dxz     :     0.028156
      dyz     :     0.023244
      dx2y2   :     0.044696
      dxy     :     0.054235
 32 O s       :     3.810398  s :     3.810398
      pz      :     1.605695  p :     4.744385
      px      :     1.355122
      py      :     1.783568
      dz2     :     0.003377  d :     0.024793
      dxz     :     0.007885
      dyz     :     0.000757
      dx2y2   :     0.007933
      dxy     :     0.004841
 33 O s       :     3.789561  s :     3.789561
      pz      :     1.574767  p :     4.662207
      px      :     1.526803
      py      :     1.560636
      dz2     :     0.004252  d :     0.024277
      dxz     :     0.002689
      dyz     :     0.006347
      dx2y2   :     0.004570
      dxy     :     0.006420
 34 O s       :     3.803763  s :     3.803763
      pz      :     1.814021  p :     4.790519
      px      :     1.668312
      py      :     1.308185
      dz2     :     0.003674  d :     0.027642
      dxz     :     0.004495
      dyz     :     0.002960
      dx2y2   :     0.002658
      dxy     :     0.013856
 35 H s       :     0.902130  s :     0.902130
 36 H s       :     0.862420  s :     0.862420
 37 H s       :     0.569200  s :     0.569200


                     *******************************
                     * LOEWDIN POPULATION ANALYSIS *
                     *******************************

----------------------
LOEWDIN ATOMIC CHARGES
----------------------
   0 C :   -0.099566
   1 C :   -0.053589
   2 C :   -0.138324
   3 C :   -0.173033
   4 C :   -0.167084
   5 C :   -0.159534
   6 H :    0.343798
   7 H :    0.122283
   8 H :    0.116773
   9 H :    0.115017
  10 H :    0.112957
  11 C :   -0.221546
  12 C :   -0.210586
  13 H :    0.124769
  14 H :    0.132302
  15 C :   -0.035351
  16 H :    0.160282
  17 H :    0.117211
  18 C :    0.012211
  19 C :   -0.136920
  20 C :   -0.149796
  21 C :   -0.145671
  22 C :   -0.165015
  23 H :    0.158002
  24 H :    0.122894
  25 H :    0.119929
  26 H :    0.121219
  27 Pd:   -0.781309
  28 Br:   -0.203875
  29 P :    0.356293
  30 H :    0.047362
  31 C :    0.136273
  32 O :   -0.412080
  33 O :   -0.251645
  34 O :   -0.338315
  35 H :    0.036815
  36 H :    0.063062
  37 H :    0.323784

-------------------------------
LOEWDIN REDUCED ORBITAL CHARGES
-------------------------------
  0 C s       :     2.967385  s :     2.967385
      pz      :     0.937251  p :     3.057919
      px      :     1.087862
      py      :     1.032805
      dz2     :     0.011166  d :     0.074262
      dxz     :     0.013397
      dyz     :     0.014865
      dx2y2   :     0.024078
      dxy     :     0.010756
  1 C s       :     2.856811  s :     2.856811
      pz      :     1.025086  p :     3.088455
      px      :     1.009444
      py      :     1.053924
      dz2     :     0.014620  d :     0.108324
      dxz     :     0.025615
      dyz     :     0.015639
      dx2y2   :     0.024204
      dxy     :     0.028245
  2 C s       :     2.899064  s :     2.899064
      pz      :     1.006307  p :     3.150809
      px      :     1.090123
      py      :     1.054379
      dz2     :     0.006087  d :     0.088451
      dxz     :     0.016486
      dyz     :     0.009995
      dx2y2   :     0.027333
      dxy     :     0.028551
  3 C s       :     2.886529  s :     2.886529
      pz      :     1.045506  p :     3.191641
      px      :     1.065907
      py      :     1.080228
      dz2     :     0.012385  d :     0.094863
      dxz     :     0.013327
      dyz     :     0.016420
      dx2y2   :     0.029881
      dxy     :     0.022850
  4 C s       :     2.885196  s :     2.885196
      pz      :     1.047155  p :     3.187806
      px      :     1.076636
      py      :     1.064014
      dz2     :     0.013829  d :     0.094082
      dxz     :     0.018122
      dyz     :     0.012219
      dx2y2   :     0.021134
      dxy     :     0.028778
  5 C s       :     2.889042  s :     2.889042
      pz      :     1.039343  p :     3.180160
      px      :     1.081650
      py      :     1.059167
      dz2     :     0.007876  d :     0.090332
      dxz     :     0.017995
      dyz     :     0.014011
      dx2y2   :     0.026793
      dxy     :     0.023657
  6 H s       :     0.656202  s :     0.656202
  7 H s       :     0.877717  s :     0.877717
  8 H s       :     0.883227  s :     0.883227
  9 H s       :     0.884983  s :     0.884983
 10 H s       :     0.887043  s :     0.887043
 11 C s       :     2.905614  s :     2.905614
      pz      :     1.089584  p :     3.229396
      px      :     1.045913
      py      :     1.093899
      dz2     :     0.024357  d :     0.086536
      dxz     :     0.017603
      dyz     :     0.003345
      dx2y2   :     0.021813
      dxy     :     0.019418
 12 C s       :     2.889488  s :     2.889488
      pz      :     1.063199  p :     3.231032
      px      :     1.057860
      py      :     1.109972
      dz2     :     0.019465  d :     0.090066
      dxz     :     0.027731
      dyz     :     0.006820
      dx2y2   :     0.018650
      dxy     :     0.017401
 13 H s       :     0.875231  s :     0.875231
 14 H s       :     0.867698  s :     0.867698
 15 C s       :     2.839141  s :     2.839141
      pz      :     1.067178  p :     3.084520
      px      :     1.023104
      py      :     0.994238
      dz2     :     0.030587  d :     0.111690
      dxz     :     0.030373
      dyz     :     0.020671
      dx2y2   :     0.013808
      dxy     :     0.016251
 16 H s       :     0.839718  s :     0.839718
 17 H s       :     0.882789  s :     0.882789
 18 C s       :     2.883596  s :     2.883596
      pz      :     1.052822  p :     3.010118
      px      :     1.005300
      py      :     0.951996
      dz2     :     0.024800  d :     0.094074
      dxz     :     0.027275
      dyz     :     0.020071
      dx2y2   :     0.013007
      dxy     :     0.008921
 19 C s       :     2.880524  s :     2.880524
      pz      :     1.084253  p :     3.165321
      px      :     1.044038
      py      :     1.037031
      dz2     :     0.021264  d :     0.091074
      dxz     :     0.018610
      dyz     :     0.018691
      dx2y2   :     0.015445
      dxy     :     0.017064
 20 C s       :     2.888010  s :     2.888010
      pz      :     1.073107  p :     3.167840
      px      :     1.047545
      py      :     1.047188
      dz2     :     0.021792  d :     0.093947
      dxz     :     0.027621
      dyz     :     0.017919
      dx2y2   :     0.013600
      dxy     :     0.013016
 21 C s       :     2.888503  s :     2.888503
      pz      :     1.069140  p :     3.165692
      px      :     1.058230
      py      :     1.038322
      dz2     :     0.025130  d :     0.091476
      dxz     :     0.023557
      dyz     :     0.014621
      dx2y2   :     0.014112
      dxy     :     0.014056
 22 C s       :     2.883223  s :     2.883223
      pz      :     1.096499  p :     3.187385
      px      :     1.049148
      py      :     1.041738
      dz2     :     0.030103  d :     0.094408
      dxz     :     0.022958
      dyz     :     0.022817
      dx2y2   :     0.004920
      dxy     :     0.013611
 23 H s       :     0.841998  s :     0.841998
 24 H s       :     0.877106  s :     0.877106
 25 H s       :     0.880071  s :     0.880071
 26 H s       :     0.878781  s :     0.878781
 27 Pds       :     2.582757  s :     2.582757
      pz      :     2.170478  p :     6.870932
      px      :     2.354374
      py      :     2.346081
      dz2     :     1.985525  d :     9.324892
      dxz     :     1.978451
      dyz     :     1.998917
      dx2y2   :     1.987788
      dxy     :     1.374211
      f0      :     0.000174  f :     0.002729
      f+1     :     0.000337
      f-1     :     0.000372
      f+2     :     0.000045
      f-2     :     0.000203
      f+3     :     0.000776
      f-3     :     0.000821
 28 Brs       :     7.870185  s :     7.870185
      pz      :     5.705258  p :    17.321970
      px      :     5.847435
      py      :     5.769277
      dz2     :     2.002385  d :    10.011720
      dxz     :     2.001272
      dyz     :     2.002446
      dx2y2   :     2.002275
      dxy     :     2.003342
 29 P s       :     5.264978  s :     5.264978
      pz      :     2.959106  p :     9.161773
      px      :     3.067471
      py      :     3.135196
      dz2     :     0.043850  d :     0.216955
      dxz     :     0.005122
      dyz     :     0.074275
      dx2y2   :     0.077671
      dxy     :     0.016037
 30 H s       :     0.952638  s :     0.952638
 31 C s       :     2.794670  s :     2.794670
      pz      :     0.811077  p :     2.694322
      px      :     0.978081
      py      :     0.905164
      dz2     :     0.042778  d :     0.374735
      dxz     :     0.060302
      dyz     :     0.050518
      dx2y2   :     0.102816
      dxy     :     0.118321
 32 O s       :     3.583161  s :     3.583161
      pz      :     1.598758  p :     4.784799
      px      :     1.425512
      py      :     1.760528
      dz2     :     0.005889  d :     0.044120
      dxz     :     0.013024
      dyz     :     0.001065
      dx2y2   :     0.016473
      dxy     :     0.007669
 33 O s       :     3.527452  s :     3.527452
      pz      :     1.563469  p :     4.676299
      px      :     1.522540
      py      :     1.590289
      dz2     :     0.006753  d :     0.047894
      dxz     :     0.006852
      dyz     :     0.011392
      dx2y2   :     0.009421
      dxy     :     0.013477
 34 O s       :     3.502202  s :     3.502202
      pz      :     1.789266  p :     4.787416
      px      :     1.665516
      py      :     1.332634
      dz2     :     0.006105  d :     0.048697
      dxz     :     0.005233
      dyz     :     0.006253
      dx2y2   :     0.006757
      dxy     :     0.024349
 35 H s       :     0.963185  s :     0.963185
 36 H s       :     0.936938  s :     0.936938
 37 H s       :     0.676216  s :     0.676216


                      *****************************
                      * MAYER POPULATION ANALYSIS *
                      *****************************

  NA   - Mulliken gross atomic population
  ZA   - Total nuclear charge
  QA   - Mulliken gross atomic charge
  VA   - Mayer's total valence
  BVA  - Mayer's bonded valence
  FA   - Mayer's free valence

  ATOM       NA         ZA         QA         VA         BVA        FA
  0 C      6.1025     6.0000    -0.1025     3.5853     3.5853     0.0000
  1 C      5.9866     6.0000     0.0134     3.7900     3.7900    -0.0000
  2 C      6.3106     6.0000    -0.3106     3.8871     3.8871    -0.0000
  3 C      6.2054     6.0000    -0.2054     3.8081     3.8081    -0.0000
  4 C      6.2389     6.0000    -0.2389     3.8764     3.8764    -0.0000
  5 C      6.2281     6.0000    -0.2281     3.7822     3.7822     0.0000
  6 H      0.6799     1.0000     0.3201     0.8935     0.8935    -0.0000
  7 H      0.8156     1.0000     0.1844     0.9266     0.9266     0.0000
  8 H      0.8289     1.0000     0.1711     0.9248     0.9248     0.0000
  9 H      0.8283     1.0000     0.1717     0.9239     0.9239    -0.0000
 10 H      0.8297     1.0000     0.1703     0.9229     0.9229     0.0000
 11 C      6.4546     6.0000    -0.4546     3.7165     3.7165    -0.0000
 12 C      6.5218     6.0000    -0.5218     3.7301     3.7301     0.0000
 13 H      0.7927     1.0000     0.2073     0.9006     0.9006    -0.0000
 14 H      0.7743     1.0000     0.2257     0.8955     0.8955     0.0000
 15 C      5.8594     6.0000     0.1406     3.6958     3.6958    -0.0000
 16 H      0.7261     1.0000     0.2739     0.8839     0.8839    -0.0000
 17 H      0.8055     1.0000     0.1945     0.9107     0.9107     0.0000
 18 C      6.1079     6.0000    -0.1079     3.7979     3.7979     0.0000
 19 C      6.2938     6.0000    -0.2938     3.7797     3.7797    -0.0000
 20 C      6.2372     6.0000    -0.2372     3.8265     3.8265     0.0000
 21 C      6.2940     6.0000    -0.2940     3.8331     3.8331    -0.0000
 22 C      6.2180     6.0000    -0.2180     3.8211     3.8211     0.0000
 23 H      0.7376     1.0000     0.2624     0.9166     0.9166    -0.0000
 24 H      0.8125     1.0000     0.1875     0.9232     0.9232    -0.0000
 25 H      0.8223     1.0000     0.1777     0.9290     0.9290     0.0000
 26 H      0.8159     1.0000     0.1841     0.9222     0.9222    -0.0000
 27 Pd    17.8898    18.0000     0.1102     2.6395     2.6395     0.0000
 28 Br    35.3974    35.0000    -0.3974     1.0068     1.0068     0.0000
 29 P     15.1711    15.0000    -0.1711     3.5095     3.5095    -0.0000
 30 H      0.8927     1.0000     0.1073     0.9605     0.9605    -0.0000
 31 C      5.3097     6.0000     0.6903     4.2995     4.2995    -0.0000
 32 O      8.5796     8.0000    -0.5796     2.0087     2.0087    -0.0000
 33 O      8.4760     8.0000    -0.4760     2.1674     2.1674    -0.0000
 34 O      8.6219     8.0000    -0.6219     1.9345     1.9345     0.0000
 35 H      0.9021     1.0000     0.0979     0.9568     0.9568    -0.0000
 36 H      0.8624     1.0000     0.1376     0.9550     0.9550     0.0000
 37 H      0.5692     1.0000     0.4308     0.8014     0.8014     0.0000

  Mayer bond orders larger than 0.100000
B(  0-C ,  1-C ) :   1.4438 B(  0-C ,  2-C ) :   1.3547 B(  0-C , 27-Pd) :   0.6038 
B(  1-C ,  5-C ) :   1.3355 B(  1-C , 11-C ) :   0.9597 B(  2-C ,  3-C ) :   1.4593 
B(  2-C ,  7-H ) :   0.9213 B(  3-C ,  4-C ) :   1.4014 B(  3-C ,  9-H ) :   0.9289 
B(  4-C ,  5-C ) :   1.4755 B(  4-C , 10-H ) :   0.9287 B(  5-C ,  8-H ) :   0.9289 
B(  6-H , 28-Br) :   0.4324 B(  6-H , 33-O ) :   0.3485 B( 11-C , 12-C ) :   0.9773 
B( 11-C , 13-H ) :   0.9211 B( 11-C , 14-H ) :   0.9137 B( 12-C , 15-C ) :   0.9684 
B( 12-C , 16-H ) :   0.8768 B( 12-C , 17-H ) :   0.9255 B( 15-C , 18-C ) :   1.3385 
B( 15-C , 21-C ) :   1.4137 B( 18-C , 19-C ) :   1.4092 B( 18-C , 27-Pd) :   0.8370 
B( 19-C , 20-C ) :   1.4056 B( 19-C , 23-H ) :   0.8765 B( 20-C , 22-C ) :   1.4393 
B( 20-C , 24-H ) :   0.9270 B( 21-C , 22-C ) :   1.4126 B( 21-C , 25-H ) :   0.9271 
B( 22-C , 26-H ) :   0.9284 B( 27-Pd, 28-Br) :   0.2816 B( 27-Pd, 29-P ) :   0.5193 
B( 29-P , 30-H ) :   0.9377 B( 29-P , 35-H ) :   0.9250 B( 29-P , 36-H ) :   0.9337 
B( 31-C , 32-O ) :   1.7179 B( 31-C , 33-O ) :   1.5094 B( 31-C , 34-O ) :   1.0326 
B( 34-O , 37-H ) :   0.7668 


------------------
HIRSHFELD ANALYSIS
------------------

Total integrated alpha density =    100.000414749
Total integrated beta density  =    100.000414749

  ATOM     CHARGE      SPIN    
   0 C   -0.184423    0.000000
   1 C   -0.027793    0.000000
   2 C   -0.078030    0.000000
   3 C   -0.079623    0.000000
   4 C   -0.079137    0.000000
   5 C   -0.074449    0.000000
   6 H    0.244072    0.000000
   7 H    0.006347    0.000000
   8 H    0.022432    0.000000
   9 H    0.023247    0.000000
  10 H    0.021370    0.000000
  11 C   -0.051914    0.000000
  12 C   -0.056971    0.000000
  13 H    0.017125    0.000000
  14 H    0.016077    0.000000
  15 C   -0.019846    0.000000
  16 H    0.008040    0.000000
  17 H    0.016036    0.000000
  18 C   -0.104950    0.000000
  19 C   -0.070504    0.000000
  20 C   -0.064426    0.000000
  21 C   -0.064399    0.000000
  22 C   -0.074102    0.000000
  23 H    0.029059    0.000000
  24 H    0.029846    0.000000
  25 H    0.024734    0.000000
  26 H    0.029064    0.000000
  27 Pd   0.377266    0.000000
  28 Br  -0.362144    0.000000
  29 P    0.109255    0.000000
  30 H    0.003265    0.000000
  31 C    0.242004    0.000000
  32 O   -0.437515    0.000000
  33 O   -0.323348    0.000000
  34 O   -0.255371    0.000000
  35 H   -0.004076    0.000000
  36 H    0.015185    0.000000
  37 H    0.177770    0.000000

  TOTAL  -1.000829    0.000000

-------
TIMINGS
-------

Total SCF time: 0 days 0 hours 12 min 16 sec 

Total time                  ....     736.992 sec
Sum of individual times     ....     736.356 sec  ( 99.9%)

Fock matrix formation       ....     725.802 sec  ( 98.5%)
  Split-RI-J                ....      71.627 sec  (  9.9% of F)
  Chain of spheres X        ....     602.493 sec  ( 83.0% of F)
  XC integration            ....      51.524 sec  (  7.1% of F)
    Basis function eval.    ....      20.109 sec  ( 39.0% of XC)
    Density eval.           ....      13.655 sec  ( 26.5% of XC)
    XC-Functional eval.     ....       3.906 sec  (  7.6% of XC)
    XC-Potential eval.      ....      12.384 sec  ( 24.0% of XC)
Diagonalization             ....       0.884 sec  (  0.1%)
Density matrix formation    ....       0.121 sec  (  0.0%)
Population analysis         ....       1.634 sec  (  0.2%)
Initial guess               ....       0.088 sec  (  0.0%)
Orbital Transformation      ....       0.000 sec  (  0.0%)
Orbital Orthonormalization  ....       0.000 sec  (  0.0%)
DIIS solution               ....       0.320 sec  (  0.0%)
Grid generation             ....       7.505 sec  (  1.0%)

Maximum memory used throughout the entire SCF-calculation: 179.8 MB


-------------------------------------------------------------------------------
                          DFT DISPERSION CORRECTION                            
                                                                               
                              DFTD3 V3.1  Rev 1                                
                          USING Becke-Johnson damping                          
-------------------------------------------------------------------------------
The PBEh-3c composite method is recognized
Using three-body term ABC
Active option DFTDOPT                   ...         4   

molecular C6(AA) [au] = 24564.351515 


            DFT-D V3
 parameters
 s6 scaling factor         :     1.0000 
 a1 scaling factor         :     0.4860 
 s8 scaling factor         :     0.0000 
 a2 scaling factor         :     4.5000 
 Damping factor alpha9(ATM):    16.0000 
 ad hoc parameters k1-k3   :    16.0000     1.3333    -4.0000 

 Edisp/kcal,au: -19.864073076589  -0.031655412036 
 E6   /kcal   : -20.113682670 
 E8   /kcal   :  -0.000000000 
 E6(ABC)      :   0.249609593 
 % E8         :   0.000000000 
 % E6(ABC)    :  -1.256588174 

-------------------------   ----------------
Dispersion correction           -0.031655412
-------------------------   ----------------

 ** NOTE ** -> element pd will be treated as ni
------------------   -----------------
gCP correction             0.065761107
------------------   -----------------

-------------------------   --------------------
FINAL SINGLE POINT ENERGY     -3847.525298790200
-------------------------   --------------------

------------------------------------------------------------------------------
                         ORCA SCF GRADIENT CALCULATION
------------------------------------------------------------------------------

 ... reading COSX grid (gridx3)
Gradient of the Kohn-Sham DFT energy:
Kohn-Sham wavefunction type      ... RKS
Hartree-Fock exchange scaling    ...    0.420
Number of operators              ...    1
Number of atoms                  ...   38
Basis set dimensions             ...  385
Integral neglect threshold       ... 2.5e-11
Integral primitive cutoff        ... 2.5e-12
SHARK Integral package           ... ON

Nuc. rep. gradient       (SHARK) ... done (  0.0 sec)
HCore & Overlap gradient (SHARK) ... done (  1.9 sec)
ECP gradient             (SHARK) ... done (  3.0 sec)
RI-J gradient            (SHARK) ... done ( 10.1 sec)
COSX-gradient                    ... done ( 89.3 sec)
Exchange-correlation gradient    ... done
Dispersion correction            ... done
gCP correction                   ... done

------------------
CARTESIAN GRADIENT
------------------

   1   C   :    0.019219504   -0.001195215    0.016209138
   2   C   :   -0.023621887   -0.004010252   -0.006703714
   3   C   :   -0.040943073   -0.000646704   -0.009948930
   4   C   :    0.001947732    0.011698199    0.002134722
   5   C   :   -0.011785791   -0.011670088   -0.008068713
   6   C   :    0.017181204    0.022054844    0.012446866
   7   H   :   -0.051058922    0.007463960   -0.003729782
   8   H   :   -0.002055296    0.008544216    0.014370659
   9   H   :   -0.007975485   -0.008532511   -0.009762869
  10   H   :   -0.002666225    0.000752800   -0.000681494
  11   H   :    0.001129476   -0.004039715    0.001498110
  12   C   :    0.009038820    0.022389166    0.018474890
  13   C   :    0.003292743   -0.011234160   -0.008298235
  14   H   :    0.003894080   -0.001412390   -0.010659567
  15   H   :   -0.009408293   -0.020199610   -0.000037031
  16   C   :   -0.010198819   -0.001698392    0.013282942
  17   H   :    0.005666732    0.008074859   -0.000554046
  18   H   :    0.001627763   -0.001149859    0.000027909
  19   C   :    0.008602658    0.013964059   -0.008213938
  20   C   :    0.000046097   -0.006869954   -0.016130454
  21   C   :   -0.004211156    0.008034011    0.020251121
  22   C   :    0.009099405   -0.000482730   -0.006502049
  23   C   :   -0.000139462   -0.006207267   -0.008973632
  24   H   :    0.006187576    0.006425920    0.017848941
  25   H   :    0.007730768   -0.001403191   -0.004080227
  26   H   :    0.006037237   -0.004632571    0.001810807
  27   H   :   -0.003462909    0.007524488   -0.001400465
  28   Pd  :    0.018099935   -0.007456986   -0.030277556
  29   Br  :    0.011794071   -0.020061110    0.028054653
  30   P   :    0.017194511   -0.011727498    0.003096607
  31   H   :    0.001951054   -0.003074043    0.003590605
  32   C   :   -0.085213764   -0.041575230    0.033521058
  33   O   :    0.086027282    0.001970790   -0.030268897
  34   O   :    0.035361362    0.021727190   -0.020930555
  35   O   :    0.012087989    0.022418538   -0.008740262
  36   H   :   -0.019736302   -0.002437170    0.001629995
  37   H   :   -0.001277895    0.005704913    0.004127541
  38   H   :   -0.010265264    0.002485611    0.002437776

Difference to translation invariance:
           :   -0.0008025446   -0.0004830820    0.0008519213

Difference to rotation invariance:
           :    0.0012236317   -0.0072550681   -0.0025049025

Norm of the cartesian gradient     ...    0.1917968923
RMS gradient                       ...    0.0179634248
MAX gradient                       ...    0.0860272822

-------
TIMINGS
-------

Total SCF gradient time            ...      118.779 sec

One electron gradient       ....       4.930 sec  (  4.2%)
RI-J Coulomb gradient       ....      10.145 sec  (  8.5%)
COSX gradient               ....      89.279 sec  ( 75.2%)
XC gradient                 ....      12.419 sec  ( 10.5%)

Maximum memory used throughout the entire SCFGRAD-calculation: 145.2 MB

                            ***************************************
                            *     ORCA property calculations      *
                            ***************************************

                                    ---------------------
                                    Active property flags
                                    ---------------------
   (+) Dipole Moment


------------------------------------------------------------------------------
                       ORCA ELECTRIC PROPERTIES CALCULATION
------------------------------------------------------------------------------

Dipole Moment Calculation                       ... on
Quadrupole Moment Calculation                   ... off
Polarizability Calculation                      ... off
GBWName                                         ... 8_1_orca.gbw
Electron density                                ... 8_1_orca.scfp
The origin for moment calculation is the CENTER OF MASS  = (-0.439687, -1.864963 -0.666228)

-------------
DIPOLE MOMENT
-------------
                                X             Y             Z
Electronic contribution:     -3.72009     -62.71732     -11.96451
Nuclear contribution   :      4.60989      62.61047      13.63818
                        -----------------------------------------
Total Dipole Moment    :      0.88980      -0.10685       1.67367
                        -----------------------------------------
Magnitude (a.u.)       :      1.89851
Magnitude (Debye)      :      4.82562



--------------------
Rotational spectrum 
--------------------
 
Rotational constants in cm-1:     0.006675     0.006443     0.004618 
Rotational constants in MHz :   200.111389   193.169106   138.434823 

 Dipole components along the rotational axes: 
x,y,z [a.u.] :    -0.875698    -0.245901     1.666436 
x,y,z [Debye]:    -2.225847    -0.625031     4.235744 

 

Timings for individual modules:

Sum of individual times         ...      857.138 sec (=  14.286 min)
GTO integral calculation        ...        1.300 sec (=   0.022 min)   0.2 %
SCF iterations                  ...      737.020 sec (=  12.284 min)  86.0 %
SCF Gradient evaluation         ...      118.818 sec (=   1.980 min)  13.9 %
                             ****ORCA TERMINATED NORMALLY****
TOTAL RUN TIME: 0 days 0 hours 14 minutes 17 seconds 586 msec
