
                                 *****************
                                 * O   R   C   A *
                                 *****************

                                            #,                                       
                                            ###                                      
                                            ####                                     
                                            #####                                    
                                            ######                                   
                                           ########,                                 
                                     ,,################,,,,,                         
                               ,,#################################,,                 
                          ,,##########################################,,             
                       ,#########################################, ''#####,          
                    ,#############################################,,   '####,        
                  ,##################################################,,,,####,       
                ,###########''''           ''''###############################       
              ,#####''   ,,,,##########,,,,          '''####'''          '####       
            ,##' ,,,,###########################,,,                        '##       
           ' ,,###''''                  '''############,,,                           
         ,,##''                                '''############,,,,        ,,,,,,###''
      ,#''                                            '''#######################'''  
     '                                                          ''''####''''         
             ,#######,   #######,   ,#######,      ##                                
            ,#'     '#,  ##    ##  ,#'     '#,    #''#        ######   ,####,        
            ##       ##  ##   ,#'  ##            #'  '#       #        #'  '#        
            ##       ##  #######   ##           ,######,      #####,   #    #        
            '#,     ,#'  ##    ##  '#,     ,#' ,#      #,         ##   #,  ,#        
             '#######'   ##     ##  '#######'  #'      '#     #####' # '####'        



                  #######################################################
                  #                        -***-                        #
                  #          Department of theory and spectroscopy      #
                  #    Directorship and core code : Frank Neese         #
                  #        Max Planck Institute fuer Kohlenforschung    #
                  #                Kaiser Wilhelm Platz 1               #
                  #                 D-45470 Muelheim/Ruhr               #
                  #                      Germany                        #
                  #                                                     #
                  #                  All rights reserved                #
                  #                        -***-                        #
                  #######################################################


                         Program Version 5.0.4 -  RELEASE  -


 With contributions from (in alphabetic order):
   Daniel Aravena         : Magnetic Suceptibility
   Michael Atanasov       : Ab Initio Ligand Field Theory (pilot matlab implementation)
   Alexander A. Auer      : GIAO ZORA, VPT2 properties, NMR spectrum
   Ute Becker             : Parallelization
   Giovanni Bistoni       : ED, misc. LED, open-shell LED, HFLD
   Martin Brehm           : Molecular dynamics
   Dmytro Bykov           : SCF Hessian
   Vijay G. Chilkuri      : MRCI spin determinant printing, contributions to CSF-ICE
   Dipayan Datta          : RHF DLPNO-CCSD density
   Achintya Kumar Dutta   : EOM-CC, STEOM-CC
   Dmitry Ganyushin       : Spin-Orbit,Spin-Spin,Magnetic field MRCI
   Miquel Garcia          : C-PCM and meta-GGA Hessian, CC/C-PCM, Gaussian charge scheme
   Yang Guo               : DLPNO-NEVPT2, F12-NEVPT2, CIM, IAO-localization
   Andreas Hansen         : Spin unrestricted coupled pair/coupled cluster methods
   Benjamin Helmich-Paris : MC-RPA, TRAH-SCF, COSX integrals
   Lee Huntington         : MR-EOM, pCC
   Robert Izsak           : Overlap fitted RIJCOSX, COSX-SCS-MP3, EOM
   Marcus Kettner         : VPT2
   Christian Kollmar      : KDIIS, OOCD, Brueckner-CCSD(T), CCSD density, CASPT2, CASPT2-K
   Simone Kossmann        : Meta GGA functionals, TD-DFT gradient, OOMP2, MP2 Hessian
   Martin Krupicka        : Initial AUTO-CI
   Lucas Lang             : DCDCAS
   Marvin Lechner         : AUTO-CI (C++ implementation), FIC-MRCC
   Dagmar Lenk            : GEPOL surface, SMD
   Dimitrios Liakos       : Extrapolation schemes; Compound Job, initial MDCI parallelization
   Dimitrios Manganas     : Further ROCIS development; embedding schemes
   Dimitrios Pantazis     : SARC Basis sets
   Anastasios Papadopoulos: AUTO-CI, single reference methods and gradients
   Taras Petrenko         : DFT Hessian,TD-DFT gradient, ASA, ECA, R-Raman, ABS, FL, XAS/XES, NRVS
   Peter Pinski           : DLPNO-MP2, DLPNO-MP2 Gradient
   Christoph Reimann      : Effective Core Potentials
   Marius Retegan         : Local ZFS, SOC
   Christoph Riplinger    : Optimizer, TS searches, QM/MM, DLPNO-CCSD(T), (RO)-DLPNO pert. Triples
   Tobias Risthaus        : Range-separated hybrids, TD-DFT gradient, RPA, STAB
   Michael Roemelt        : Original ROCIS implementation
   Masaaki Saitow         : Open-shell DLPNO-CCSD energy and density
   Barbara Sandhoefer     : DKH picture change effects
   Avijit Sen             : IP-ROCIS
   Kantharuban Sivalingam : CASSCF convergence, NEVPT2, FIC-MRCI
   Bernardo de Souza      : ESD, SOC TD-DFT
   Georgi Stoychev        : AutoAux, RI-MP2 NMR, DLPNO-MP2 response
   Willem Van den Heuvel  : Paramagnetic NMR
   Boris Wezisla          : Elementary symmetry handling
   Frank Wennmohs         : Technical directorship


 We gratefully acknowledge several colleagues who have allowed us to
 interface, adapt or use parts of their codes:
   Stefan Grimme, W. Hujo, H. Kruse, P. Pracht,  : VdW corrections, initial TS optimization,
                  C. Bannwarth, S. Ehlert          DFT functionals, gCP, sTDA/sTD-DF
   Ed Valeev, F. Pavosevic, A. Kumar             : LibInt (2-el integral package), F12 methods
   Garnet Chan, S. Sharma, J. Yang, R. Olivares  : DMRG
   Ulf Ekstrom                                   : XCFun DFT Library
   Mihaly Kallay                                 : mrcc  (arbitrary order and MRCC methods)
   Jiri Pittner, Ondrej Demel                    : Mk-CCSD
   Frank Weinhold                                : gennbo (NPA and NBO analysis)
   Christopher J. Cramer and Donald G. Truhlar   : smd solvation model
   Lars Goerigk                                  : TD-DFT with DH, B97 family of functionals
   V. Asgeirsson, H. Jonsson                     : NEB implementation
   FAccTs GmbH                                   : IRC, NEB, NEB-TS, DLPNO-Multilevel, CI-OPT
                                                   MM, QMMM, 2- and 3-layer-ONIOM, Crystal-QMMM,
                                                   LR-CPCM, SF, NACMEs, symmetry and pop. for TD-DFT,
                                                   nearIR, NL-DFT gradient (VV10), updates on ESD,
                                                   ML-optimized integration grids
   S Lehtola, MJT Oliveira, MAL Marques          : LibXC Library
   Liviu Ungur et al                             : ANISO software


 Your calculation uses the libint2 library for the computation of 2-el integrals
 For citations please refer to: http://libint.valeyev.net

 Your ORCA version has been built with support for libXC version: 5.1.0
 For citations please refer to: https://tddft.org/programs/libxc/

 This ORCA versions uses:
   CBLAS   interface :  Fast vector & matrix operations
   LAPACKE interface :  Fast linear algebra routines
   SCALAPACK package :  Parallel linear algebra routines
   Shared memory     :  Shared parallel matrices
   BLAS/LAPACK       :  OpenBLAS 0.3.15  USE64BITINT DYNAMIC_ARCH NO_AFFINITY SkylakeX SINGLE_THREADED
        Core in use  :  SkylakeX
   Copyright (c) 2011-2014, The OpenBLAS Project




***************************************
The coordinates will be read from file: cineb-10-peak.xyz
***************************************




################################################################################


                                COMPOUND JOB MainJOB 
Basename: reaction-0-cineb10_optts_Compound_0

################################################################################

================================================================================
                                       INPUT FILE
================================================================================
NAME = reaction-0-cineb10_optts_Compound_0.inp
|  1> %pal nprocs 8 end 
|  2>   
|  3>  *xyzfile 0 1 cineb-10-peak.xyz 
|  4>   
|  5> 
|  6>                          ****END OF INPUT****
================================================================================


***************************************
The coordinates will be read from file: cineb-10-peak.xyz
***************************************


================================================================================

cite the ECPs for Pd [Def2-ECP] as follows:
Ce-Yb(ecp-28): M. Dolg, H. Stoll, H.Preuss, J. Chem. Phys., 1989, 90, 1730-1734.
Y-Cd(ecp-28), Hf-Hg(ecp-46): D. Andrae,U. Haeussermann, M. Dolg, H. Stoll, H. Preuss, Theor. Chim. Acta, 1990, 77, 123-141.
In-Sb(ecp-28), Tl-Bi(ecp-46): B. Metz, H. Stoll, M. Dolg, J. Chem. Phys., 2000, 113, 2563-2569.
Te-Xe(ecp-28), Po-Rn(ecp-46): K. A. Peterson, D. Figgen, E. Goll, H. Stoll, M. Dolg, J. Chem. Phys., 2003, 119, 11113-11123.
Rb(ecp-28), Cs(ecp-46): T. Leininger, A. Nicklass, W. Kuechle, H. Stoll, M. Dolg, A. Bergner, Chem. Phys. Lett., 1996, 255, 274-280.
Sr(ecp-28), Ba(ecp-46): M. Kaupp, P. V. Schleyer, H. Stoll and H. Preuss, J. Chem. Phys., 1991, 94, 1360-1366.
La(ecp-46): M. Dolg, H. Stoll, A. Savin, H. Preuss, Theor. Chim. Acta, 1989, 75, 173-194.
Lu(ecp-28): X. Cao, M. Dolg, J. Chem. Phys., 2001, 115, 7348-7355.

ECP parameters for Pd [Def2-ECP] have been obtained from:
TURBOMOLE (7.0.2)

----- Orbital basis set information -----
Your calculation utilizes the basis: def2-SVP
   F. Weigend and R. Ahlrichs, Phys. Chem. Chem. Phys. 7, 3297 (2005).



################################################################################


                                COMPOUND JOB  1 
Basename: reaction-0-cineb10_optts_Compound_1
NOTE: please remember that MaxCore and PAL settings will be ignored.

################################################################################

================================================================================
                                       INPUT FILE
================================================================================
NAME = reaction-0-cineb10_optts_Compound_1.inp
|  1>   
|  2>    
|  3>   ! PBEh-3c OptTS Freq pal8 
|  4>    
|  5>   %geom 
|  6>    calc_hess true 
|  7>    recalc_hess 20 
|  8>    maxiter 600 
|  9>   end  
| 10>    
| 11> 
| 12>                          ****END OF INPUT****
================================================================================
Your calculation utilizes the geometrical counterpoise correction gCP
Please cite in your paper:
H.Kruse, S. Grimme J.Chem.Phys., 136, (2012), 154101 
   

Your calculation utilizes the atom-pairwise dispersion correction
with the Becke-Johnson damping scheme (D3BJ)
Cite in your paper:
S.Grimme, S.Ehrlich, L.Goerigk, J Comput Chem, (2011), 32, 1456–1465 
S.Grimme, J.Antony, S.Ehrlich and H.Krieg, J.Chem.Phys., 132, (2010), 154104 
   

Your calculation employs the composite approach PBEh-3c.
Please cite in your paper:
S. Grimme, J. G. Brandenburg, C. Bannwarth, A. Hansen J.Chem.Phys., 143, (2015), 054107 
   

================================================================================

cite the ECPs for Pd [Def2-ECP] as follows:
Ce-Yb(ecp-28): M. Dolg, H. Stoll, H.Preuss, J. Chem. Phys., 1989, 90, 1730-1734.
Y-Cd(ecp-28), Hf-Hg(ecp-46): D. Andrae,U. Haeussermann, M. Dolg, H. Stoll, H. Preuss, Theor. Chim. Acta, 1990, 77, 123-141.
In-Sb(ecp-28), Tl-Bi(ecp-46): B. Metz, H. Stoll, M. Dolg, J. Chem. Phys., 2000, 113, 2563-2569.
Te-Xe(ecp-28), Po-Rn(ecp-46): K. A. Peterson, D. Figgen, E. Goll, H. Stoll, M. Dolg, J. Chem. Phys., 2003, 119, 11113-11123.
Rb(ecp-28), Cs(ecp-46): T. Leininger, A. Nicklass, W. Kuechle, H. Stoll, M. Dolg, A. Bergner, Chem. Phys. Lett., 1996, 255, 274-280.
Sr(ecp-28), Ba(ecp-46): M. Kaupp, P. V. Schleyer, H. Stoll and H. Preuss, J. Chem. Phys., 1991, 94, 1360-1366.
La(ecp-46): M. Dolg, H. Stoll, A. Savin, H. Preuss, Theor. Chim. Acta, 1989, 75, 173-194.
Lu(ecp-28): X. Cao, M. Dolg, J. Chem. Phys., 2001, 115, 7348-7355.

ECP parameters for Pd [Def2-ECP] have been obtained from:
TURBOMOLE (7.0.2)

----- Orbital basis set information -----
Your calculation utilizes the basis: def2-mSVP

----- AuxJ basis set information -----
Your calculation utilizes the auxiliary basis: def2/J
   F. Weigend, Phys. Chem. Chem. Phys. 8, 1057 (2006).

================================================================================
                                        WARNINGS
                       Please study these warnings very carefully!
================================================================================


WARNING: Geometry Optimization
  ===> : Switching off AutoStart
         For restart on a previous wavefunction, please use MOREAD

INFO   : the flag for use of the SHARK integral package has been found!


                       *****************************
                       * Geometry Optimization Run *
                       *****************************

Geometry optimization settings:
Update method            Update   .... Bofill
Choice of coordinates    CoordSys .... Z-matrix Internals
Initial Hessian          InHess   .... Almoef's Model

Convergence Tolerances:
Energy Change            TolE     ....  5.0000e-06 Eh
Max. Gradient            TolMAXG  ....  3.0000e-04 Eh/bohr
RMS Gradient             TolRMSG  ....  1.0000e-04 Eh/bohr
Max. Displacement        TolMAXD  ....  4.0000e-03 bohr
RMS Displacement         TolRMSD  ....  2.0000e-03 bohr
Strict Convergence                ....  False
------------------------------------------------------------------------------
                        ORCA OPTIMIZATION COORDINATE SETUP
------------------------------------------------------------------------------

The optimization will be done in new redundant internal coordinates
Making redundant internal coordinates   ...  (new redundants) done
Following TS mode number                ...     0
Evaluating the initial hessian          ...  (Is done on the fly) done
Evaluating the coordinates              ...  done
Calculating the B-matrix                .... done
Calculating the G-matrix                .... done
Diagonalizing the G-matrix              .... done
Small eigenvalue found = 2.608e-02
The first mode is                       ....   98
The number of degrees of freedom        ....   57

    -----------------------------------------------------------------
                    Redundant Internal Coordinates


    -----------------------------------------------------------------
         Definition                    Initial Value    d2E/dq (diagonal element)
    -----------------------------------------------------------------
      1. B(C   1,C   0)                  1.3938         0.000000   
      2. B(C   2,C   1)                  1.3956         0.000000   
      3. B(C   3,C   2)                  1.3968         0.000000   
      4. B(C   4,C   0)                  1.3936         0.000000   
      5. B(C   5,C   4)                  1.3893         0.000000   
      6. B(C   5,C   3)                  1.3871         0.000000   
      7. B(H   6,C   0)                  1.0796         0.000000   
      8. B(H   7,C   1)                  1.0946         0.000000   
      9. B(H   8,C   2)                  1.0933         0.000000   
     10. B(H   9,C   5)                  1.0748         0.000000   
     11. B(H  10,C   3)                  1.0919         0.000000   
     12. B(Pd 11,C   4)                  1.9576         0.000000   
     13. B(O  12,Pd 11)                  2.2233         0.000000   
     14. B(O  13,Pd 11)                  2.0629         0.000000   
     15. B(O  14,Pd 11)                  2.0698         0.000000   
     16. B(C  15,O  14)                  1.1900         0.000000   
     17. B(C  15,Pd 11)                  2.7988         0.000000   
     18. B(O  16,C  15)                  1.2940         0.000000   
     19. B(H  17,O  16)                  0.9661         0.000000   
     20. B(C  18,O  13)                  1.2657         0.000000   
     21. B(C  18,O  12)                  1.2443         0.000000   
     22. B(C  18,Pd 11)                  2.4639         0.000000   
     23. B(H  19,C  18)                  1.1054         0.000000   
     24. B(H  20,C  15)                  1.0636         0.000000   
     25. A(C   1,C   0,C   4)          120.2541         0.000000   
     26. A(C   4,C   0,H   6)          121.2265         0.000000   
     27. A(C   1,C   0,H   6)          118.3417         0.000000   
     28. A(C   0,C   1,C   2)          119.3827         0.000000   
     29. A(C   0,C   1,H   7)          120.0192         0.000000   
     30. A(C   2,C   1,H   7)          120.2217         0.000000   
     31. A(C   1,C   2,C   3)          119.3800         0.000000   
     32. A(C   3,C   2,H   8)          120.3744         0.000000   
     33. A(C   1,C   2,H   8)          120.1601         0.000000   
     34. A(C   2,C   3,H  10)          120.2321         0.000000   
     35. A(C   5,C   3,H  10)          119.7382         0.000000   
     36. A(C   2,C   3,C   5)          119.5660         0.000000   
     37. A(C   0,C   4,C   5)          118.0139         0.000000   
     38. A(C   0,C   4,Pd 11)          115.0675         0.000000   
     39. A(C   5,C   4,Pd 11)          116.4911         0.000000   
     40. A(C   3,C   5,C   4)          120.4523         0.000000   
     41. A(C   4,C   5,H   9)          119.9286         0.000000   
     42. A(C   3,C   5,H   9)          119.3432         0.000000   
     43. A(O  14,Pd 11,C  15)           22.5370         0.000000   
     44. A(C   4,Pd 11,O  12)          149.8506         0.000000   
     45. A(O  12,Pd 11,C  15)          126.1682         0.000000   
     46. A(C   4,Pd 11,C  15)           82.4871         0.000000   
     47. A(O  13,Pd 11,O  14)          168.5721         0.000000   
     48. A(O  12,Pd 11,O  14)          110.4933         0.000000   
     49. A(C   4,Pd 11,O  14)           93.5724         0.000000   
     50. A(O  13,Pd 11,C  15)          156.1521         0.000000   
     51. A(O  12,Pd 11,O  13)           61.0982         0.000000   
     52. A(C   4,Pd 11,O  13)           96.9893         0.000000   
     53. A(C  15,Pd 11,C  18)          151.2914         0.000000   
     54. A(O  14,Pd 11,C  18)          140.4222         0.000000   
     55. A(O  13,Pd 11,C  18)           30.8832         0.000000   
     56. A(O  12,Pd 11,C  18)           30.2355         0.000000   
     57. A(C   4,Pd 11,C  18)          124.8462         0.000000   
     58. A(Pd 11,O  12,C  18)           85.6387         0.000000   
     59. A(Pd 11,O  13,C  18)           92.3394         0.000000   
     60. A(Pd 11,O  14,C  15)          115.6538         0.000000   
     61. A(Pd 11,C  15,O  16)           84.9336         0.000000   
     62. A(Pd 11,C  15,O  14)           41.8092         0.000000   
     63. A(O  16,C  15,H  20)          114.9313         0.000000   
     64. A(O  14,C  15,H  20)          118.4285         0.000000   
     65. A(Pd 11,C  15,H  20)          160.0427         0.000000   
     66. A(O  14,C  15,O  16)          126.6276         0.000000   
     67. A(C  15,O  16,H  17)          114.4179         0.000000   
     68. A(O  13,C  18,H  19)          118.2509         0.000000   
     69. A(O  12,C  18,H  19)          120.9033         0.000000   
     70. A(Pd 11,C  18,H  19)          174.1521         0.000000   
     71. A(O  12,C  18,O  13)          120.8427         0.000000   
     72. A(Pd 11,C  18,O  13)           56.7775         0.000000   
     73. A(Pd 11,C  18,O  12)           64.1259         0.000000   
     74. D(C   2,C   1,C   0,C   4)      4.0755         0.000000   
     75. D(H   7,C   1,C   0,C   4)   -168.8990         0.000000   
     76. D(H   7,C   1,C   0,H   6)      6.3170         0.000000   
     77. D(C   2,C   1,C   0,H   6)    179.2915         0.000000   
     78. D(C   3,C   2,C   1,H   7)   -177.8482         0.000000   
     79. D(H   8,C   2,C   1,C   0)   -167.4594         0.000000   
     80. D(C   3,C   2,C   1,C   0)      9.1917         0.000000   
     81. D(H   8,C   2,C   1,H   7)      5.5006         0.000000   
     82. D(H  10,C   3,C   2,H   8)     -4.6010         0.000000   
     83. D(H  10,C   3,C   2,C   1)    178.7552         0.000000   
     84. D(C   5,C   3,C   2,C   1)     -9.0769         0.000000   
     85. D(C   5,C   3,C   2,H   8)    167.5669         0.000000   
     86. D(C   5,C   4,C   0,C   1)    -17.2469         0.000000   
     87. D(C   5,C   4,C   0,H   6)    167.6774         0.000000   
     88. D(Pd 11,C   4,C   0,C   1)    126.5227         0.000000   
     89. D(Pd 11,C   4,C   0,H   6)    -48.5530         0.000000   
     90. D(H   9,C   5,C   4,Pd 11)     48.0837         0.000000   
     91. D(C   3,C   5,C   4,Pd 11)   -125.8427         0.000000   
     92. D(C   3,C   5,C   4,C   0)     17.4184         0.000000   
     93. D(C   4,C   5,C   3,C   2)     -4.3836         0.000000   
     94. D(C   4,C   5,C   3,H  10)    167.8234         0.000000   
     95. D(H   9,C   5,C   4,C   0)   -168.6552         0.000000   
     96. D(H   9,C   5,C   3,C   2)   -178.3454         0.000000   
     97. D(H   9,C   5,C   3,H  10)     -6.1384         0.000000   
     98. D(O  13,Pd 11,C   4,C   5)     21.5022         0.000000   
     99. D(O  13,Pd 11,C   4,C   0)   -122.8362         0.000000   
    100. D(O  12,Pd 11,C   4,C   5)     62.1778         0.000000   
    101. D(O  14,Pd 11,C   4,C   5)   -154.1254         0.000000   
    102. D(O  12,Pd 11,C   4,C   0)    -82.1605         0.000000   
    103. D(O  14,Pd 11,C   4,C   0)     61.5362         0.000000   
    104. D(C  15,Pd 11,C   4,C   0)     81.2011         0.000000   
    105. D(C  18,Pd 11,C   4,C   5)     35.9895         0.000000   
    106. D(C  18,Pd 11,C   4,C   0)   -108.3489         0.000000   
    107. D(C  15,Pd 11,C   4,C   5)   -134.4605         0.000000   
    108. D(C  18,O  12,Pd 11,O  14)    173.1179         0.000000   
    109. D(C  18,O  12,Pd 11,C  15)    154.5938         0.000000   
    110. D(C  18,O  12,Pd 11,O  13)      1.6502         0.000000   
    111. D(C  18,O  12,Pd 11,C   4)    -45.9937         0.000000   
    112. D(C  18,O  13,Pd 11,C  15)   -116.3558         0.000000   
    113. D(C  18,O  13,Pd 11,O  14)    -46.1610         0.000000   
    114. D(C  18,O  13,Pd 11,O  12)     -1.6189         0.000000   
    115. D(C  18,O  13,Pd 11,C   4)    156.4228         0.000000   
    116. D(C  15,O  14,Pd 11,C  18)   -132.5629         0.000000   
    117. D(C  15,O  14,Pd 11,O  13)    -97.0354         0.000000   
    118. D(C  15,O  14,Pd 11,O  12)   -137.9973         0.000000   
    119. D(C  15,O  14,Pd 11,C   4)     60.5118         0.000000   
    120. D(H  20,C  15,O  14,Pd 11)   -176.4014         0.000000   
    121. D(O  16,C  15,O  14,Pd 11)      4.9584         0.000000   
    122. D(H  20,C  15,Pd 11,C  18)     86.9708         0.000000   
    123. D(H  20,C  15,Pd 11,O  13)    160.2044         0.000000   
    124. D(H  20,C  15,Pd 11,O  12)     60.2429         0.000000   
    125. D(H  20,C  15,Pd 11,C   4)   -109.4956         0.000000   
    126. D(O  16,C  15,Pd 11,C  18)    -98.3426         0.000000   
    127. D(O  16,C  15,Pd 11,O  14)   -176.0069         0.000000   
    128. D(O  16,C  15,Pd 11,O  13)    -25.1090         0.000000   
    129. D(O  16,C  15,Pd 11,O  12)   -125.0705         0.000000   
    130. D(O  16,C  15,Pd 11,C   4)     65.1910         0.000000   
    131. D(H  20,C  15,Pd 11,O  14)      9.3065         0.000000   
    132. D(O  14,C  15,Pd 11,C  18)     77.6643         0.000000   
    133. D(O  14,C  15,Pd 11,O  13)    150.8979         0.000000   
    134. D(O  14,C  15,Pd 11,O  12)     50.9364         0.000000   
    135. D(O  14,C  15,Pd 11,C   4)   -118.8022         0.000000   
    136. D(H  17,O  16,C  15,Pd 11)    -82.7733         0.000000   
    137. D(H  17,O  16,C  15,H  20)     95.2292         0.000000   
    138. D(H  17,O  16,C  15,O  14)    -86.0895         0.000000   
    139. D(H  19,C  18,O  13,Pd 11)   -176.4151         0.000000   
    140. D(O  12,C  18,O  13,Pd 11)      2.9504         0.000000   
    141. D(H  19,C  18,O  12,Pd 11)    176.6057         0.000000   
    142. D(H  19,C  18,Pd 11,C  15)    163.7679         0.000000   
    143. D(H  19,C  18,Pd 11,O  14)   -160.2389         0.000000   
    144. D(H  19,C  18,Pd 11,O  13)     32.7233         0.000000   
    145. D(H  19,C  18,Pd 11,O  12)   -150.0920         0.000000   
    146. D(H  19,C  18,Pd 11,C   4)      3.7923         0.000000   
    147. D(O  13,C  18,Pd 11,C  15)    131.0446         0.000000   
    148. D(O  13,C  18,Pd 11,O  14)    167.0378         0.000000   
    149. D(O  13,C  18,Pd 11,O  12)    177.1847         0.000000   
    150. D(O  13,C  18,Pd 11,C   4)    -28.9310         0.000000   
    151. D(O  13,C  18,O  12,Pd 11)     -2.7430         0.000000   
    152. D(O  12,C  18,Pd 11,C  15)    -46.1401         0.000000   
    153. D(O  12,C  18,Pd 11,O  14)    -10.1469         0.000000   
    154. D(O  12,C  18,Pd 11,O  13)   -177.1847         0.000000   
    155. D(O  12,C  18,Pd 11,C   4)    153.8843         0.000000   
    -----------------------------------------------------------------

Number of atoms                         .... 21
Number of degrees of freedom            .... 155

         *************************************************************
         *                GEOMETRY OPTIMIZATION CYCLE   1            *
         *************************************************************
---------------------------------
CARTESIAN COORDINATES (ANGSTROEM)
---------------------------------
  C     -1.447370    0.177890   -0.553440
  C     -2.065540   -0.870510   -1.232710
  C     -1.667590   -2.182950   -0.974230
  C     -0.801070   -2.439110    0.090910
  C     -0.384450   -0.075740    0.311490
  C     -0.200970   -1.379450    0.755120
  H     -1.760200    1.187180   -0.774860
  H     -2.771650   -0.658060   -2.041690
  H     -1.988020   -2.994090   -1.633610
  H      0.485870   -1.581440    1.556800
  H     -0.496870   -3.462820    0.318170
  Pd     1.236970    0.963410   -0.039940
  O      3.122520    1.257360   -1.180740
  O      2.513240   -0.638420   -0.286290
  O      0.301210    2.779260    0.293560
  C     -0.157450    2.930400    1.381180
  O     -0.049830    2.119600    2.383960
  H     -0.717970    1.422180    2.407140
  C      3.321160    0.045490   -0.980270
  H      4.201690   -0.464540   -1.412110
  H     -0.698880    3.823420    1.582770

----------------------------
CARTESIAN COORDINATES (A.U.)
----------------------------
  NO LB      ZA    FRAG     MASS         X           Y           Z
   0 C     6.0000    0    12.011   -2.735133    0.336163   -1.045850
   1 C     6.0000    0    12.011   -3.903305   -1.645025   -2.329484
   2 C     6.0000    0    12.011   -3.151288   -4.125178   -1.841028
   3 C     6.0000    0    12.011   -1.513803   -4.609250    0.171795
   4 C     6.0000    0    12.011   -0.726505   -0.143128    0.588631
   5 C     6.0000    0    12.011   -0.379778   -2.606783    1.426970
   6 H     1.0000    0     1.008   -3.326296    2.243445   -1.464273
   7 H     1.0000    0     1.008   -5.237659   -1.243553   -3.858235
   8 H     1.0000    0     1.008   -3.756813   -5.658010   -3.087076
   9 H     1.0000    0     1.008    0.918161   -2.988488    2.941926
  10 H     1.0000    0     1.008   -0.938948   -6.543781    0.601254
  11 Pd   18.0000*   0   106.400    2.337535    1.820581   -0.075476
  12 O     8.0000    0    15.999    5.900708    2.376066   -2.231275
  13 O     8.0000    0    15.999    4.749335   -1.206439   -0.541010
  14 O     8.0000    0    15.999    0.569204    5.252040    0.554748
  15 C     6.0000    0    12.011   -0.297537    5.537653    2.610052
  16 O     8.0000    0    15.999   -0.094165    4.005464    4.505032
  17 H     1.0000    0     1.008   -1.356767    2.687531    4.548835
  18 C     6.0000    0    12.011    6.276083    0.085964   -1.852442
  19 H     1.0000    0     1.008    7.940043   -0.877853   -2.668501
  20 H     1.0000    0     1.008   -1.320692    7.225217    2.991002
* core charge reduced due to ECP

--------------------------------
INTERNAL COORDINATES (ANGSTROEM)
--------------------------------
 C      0   0   0     0.000000000000     0.00000000     0.00000000
 C      1   0   0     1.393802153033     0.00000000     0.00000000
 C      2   1   0     1.395591224714   119.38270545     0.00000000
 C      3   2   1     1.396781327052   119.38000949     9.19173824
 C      1   2   3     1.393639482865   120.25412898     4.07553124
 C      4   3   2     1.387146080880   119.56602266   350.92309118
 H      1   2   3     1.079609063226   118.34169198   179.29150363
 H      2   1   3     1.094611791915   120.01921856   187.02548329
 H      3   2   1     1.093345996883   120.16007437   192.54060897
 H      6   4   3     1.074820900476   119.34315480   181.65463152
 H      4   3   2     1.091863962085   120.23214367   178.75521608
 Pd     5   1   2     1.957635968151   115.06754779   126.52268629
 O     12   5   1     2.223315102499   149.85060821   277.83945185
 O     12   5   1     2.062865188106    96.98932364   237.16382702
 O     12   5   1     2.069826140066    93.57242325    61.53621990
 C     15  12   5     1.190012419935   115.65381707    60.51184539
 O     16  15  12     1.294042670394   126.62760769     4.95843168
 H     17  16  15     0.966096800740   114.41793642   273.91046204
 C     13  12   5     1.244296977172    85.63865037   314.00634122
 H     19  13  12     1.105418231892   120.90328766   176.60567269
 H     16  15  12     1.063611627146   118.42850437   183.59858294

---------------------------
INTERNAL COORDINATES (A.U.)
---------------------------
 C      0   0   0     0.000000000000     0.00000000     0.00000000
 C      1   0   0     2.633904354103     0.00000000     0.00000000
 C      2   1   0     2.637285209614   119.38270545     0.00000000
 C      3   2   1     2.639534177103   119.38000949     9.19173824
 C      1   2   3     2.633596952034   120.25412898     4.07553124
 C      4   3   2     2.621326200605   119.56602266   350.92309118
 H      1   2   3     2.040165461197   118.34169198   179.29150363
 H      2   1   3     2.068516509681   120.01921856   187.02548329
 H      3   2   1     2.066124503728   120.16007437   192.54060897
 H      6   4   3     2.031117144914   119.34315480   181.65463152
 H      4   3   2     2.063323863839   120.23214367   178.75521608
 Pd     5   1   2     3.699395849720   115.06754779   126.52268629
 O     12   5   1     4.201456653134   149.85060821   277.83945185
 O     12   5   1     3.898250256720    96.98932364   237.16382702
 O     12   5   1     3.911404549556    93.57242325    61.53621990
 C     15  12   5     2.248797569642   115.65381707    60.51184539
 O     16  15  12     2.445386252652   126.62760769     4.95843168
 H     17  16  15     1.825658372256   114.41793642   273.91046204
 C     13  12   5     2.351380516122    85.63865037   314.00634122
 H     19  13  12     2.088937721720   120.90328766   176.60567269
 H     16  15  12     2.009934688160   118.42850437   183.59858294

---------------------
BASIS SET INFORMATION
---------------------
There are 4 groups of distinct atoms

 Group   1 Type C   : 8s4p1d contracted to 4s2p1d pattern {5111/31/1}
 Group   2 Type H   : 4s contracted to 2s pattern {31}
 Group   3 Type Pd  : 7s6p5d1f contracted to 5s3p2d1f pattern {31111/411/41/1}
 Group   4 Type O   : 8s4p1d contracted to 4s2p1d pattern {5111/31/1}

Atom   0C    basis set group =>   1
Atom   1C    basis set group =>   1
Atom   2C    basis set group =>   1
Atom   3C    basis set group =>   1
Atom   4C    basis set group =>   1
Atom   5C    basis set group =>   1
Atom   6H    basis set group =>   2
Atom   7H    basis set group =>   2
Atom   8H    basis set group =>   2
Atom   9H    basis set group =>   2
Atom  10H    basis set group =>   2
Atom  11Pd   basis set group =>   3
Atom  12O    basis set group =>   4
Atom  13O    basis set group =>   4
Atom  14O    basis set group =>   4
Atom  15C    basis set group =>   1
Atom  16O    basis set group =>   4
Atom  17H    basis set group =>   2
Atom  18C    basis set group =>   1
Atom  19H    basis set group =>   2
Atom  20H    basis set group =>   2
---------------------------------
AUXILIARY/J BASIS SET INFORMATION
---------------------------------
There are 4 groups of distinct atoms

 Group   1 Type C   : 12s5p4d2f1g contracted to 6s4p3d1f1g pattern {711111/2111/211/2/1}
 Group   2 Type H   : 5s2p1d contracted to 3s1p1d pattern {311/2/1}
 Group   3 Type Pd  : 11s5p5d3f3g contracted to 8s5p5d2f3g pattern {41111111/11111/11111/21/111}
 Group   4 Type O   : 12s5p4d2f1g contracted to 6s4p3d1f1g pattern {711111/2111/211/2/1}

Atom   0C    basis set group =>   1
Atom   1C    basis set group =>   1
Atom   2C    basis set group =>   1
Atom   3C    basis set group =>   1
Atom   4C    basis set group =>   1
Atom   5C    basis set group =>   1
Atom   6H    basis set group =>   2
Atom   7H    basis set group =>   2
Atom   8H    basis set group =>   2
Atom   9H    basis set group =>   2
Atom  10H    basis set group =>   2
Atom  11Pd   basis set group =>   3
Atom  12O    basis set group =>   4
Atom  13O    basis set group =>   4
Atom  14O    basis set group =>   4
Atom  15C    basis set group =>   1
Atom  16O    basis set group =>   4
Atom  17H    basis set group =>   2
Atom  18C    basis set group =>   1
Atom  19H    basis set group =>   2
Atom  20H    basis set group =>   2
-------------------------
ECP PARAMETER INFORMATION
-------------------------

 Group 1, Type Pd ECP Def2-ECP (replacing 28 core electrons, lmax=3)

Atom  11Pd   ECP group =>   1



           ************************************************************
           *        Program running with 8 parallel MPI-processes     *
           *              working on a common directory               *
           ************************************************************
------------------------------------------------------------------------------
                           ORCA GTO INTEGRAL CALCULATION
                           -- RI-GTO INTEGRALS CHOSEN --
------------------------------------------------------------------------------
------------------------------------------------------------------------------
                   ___                                                        
                  /   \      - P O W E R E D   B Y -                         
                 /     \                                                     
                 |  |  |   _    _      __       _____    __    __             
                 |  |  |  | |  | |    /  \     |  _  \  |  |  /  |          
                  \  \/   | |  | |   /    \    | | | |  |  | /  /          
                 / \  \   | |__| |  /  /\  \   | |_| |  |  |/  /          
                |  |  |   |  __  | /  /__\  \  |    /   |      \           
                |  |  |   | |  | | |   __   |  |    \   |  |\   \          
                \     /   | |  | | |  |  |  |  | |\  \  |  | \   \       
                 \___/    |_|  |_| |__|  |__|  |_| \__\ |__|  \__/        
                                                                              
                      - O R C A' S   B I G   F R I E N D -                    
                                      &                                       
                       - I N T E G R A L  F E E D E R -                       
                                                                              
 v1 FN, 2020, v2 2021                                                         
------------------------------------------------------------------------------


Reading SHARK input file reaction-0-cineb10_optts_Compound_1.SHARKINP.tmp ... ok
----------------------
SHARK INTEGRAL PACKAGE
----------------------

Number of atoms                             ...     21
Number of basis functions                   ...    227
Number of shells                            ...    111
Maximum angular momentum                    ...      3
Integral batch strategy                     ... SHARK/LIBINT Hybrid
RI-J (if used) integral strategy            ... SPLIT-RIJ (Revised 2003 algorithm where possible)
Printlevel                                  ...      1
Contraction scheme used                     ... SEGMENTED contraction
Coulomb Range Separation                    ... NOT USED
Exchange Range Separation                   ... NOT USED
Finite Nucleus Model                        ... NOT USED
Auxiliary Coulomb fitting basis             ... AVAILABLE
   # of basis functions in Aux-J            ...    765
   # of shells in Aux-J                     ...    243
   Maximum angular momentum in Aux-J        ...      4
Auxiliary J/K fitting basis                 ... NOT available
Auxiliary Correlation fitting basis         ... NOT available
Auxiliary 'external' fitting basis          ... NOT available
Integral threshold                          ...     2.500000e-11
Primitive cut-off                           ...     2.500000e-12
Primitive pair pre-selection threshold      ...     2.500000e-12

Calculating pre-screening integrals         ... done (  0.0 sec) Dimension = 111
Organizing shell pair data                  ... done (  0.0 sec)
Shell pair information
Total number of shell pairs                 ...      6216
Shell pairs after pre-screening             ...      4950
Total number of primitive shell pairs       ...     21723
Primitive shell pairs kept                  ...     11764
          la=0 lb=0:   1719 shell pairs
          la=1 lb=0:   1613 shell pairs
          la=1 lb=1:    364 shell pairs
          la=2 lb=0:    724 shell pairs
          la=2 lb=1:    343 shell pairs
          la=2 lb=2:     89 shell pairs
          la=3 lb=0:     56 shell pairs
          la=3 lb=1:     27 shell pairs
          la=3 lb=2:     14 shell pairs
          la=3 lb=3:      1 shell pairs

Calculating one electron integrals          ... done (  0.0 sec)
Calculating ECP integrals                   ... done (  0.2 sec)
Calculating RI/J V-Matrix + Cholesky decomp.... done (  0.0 sec)
Calculating Nuclear repulsion               ... done (  0.0 sec) ENN=    934.367255311481 Eh

SHARK setup successfully completed in   0.5 seconds

Maximum memory used throughout the entire GTOINT-calculation: 17.7 MB


           ************************************************************
           *        Program running with 8 parallel MPI-processes     *
           *              working on a common directory               *
           ************************************************************
-------------------------------------------------------------------------------
                                 ORCA SCF
-------------------------------------------------------------------------------

------------
SCF SETTINGS
------------
Hamiltonian:
 Density Functional     Method          .... DFT(GTOs)
 Exchange Functional    Exchange        .... PBE
   PBE kappa parameter   XKappa         ....  1.024500
   PBE mue parameter    XMuePBE         ....  0.123457
 Correlation Functional Correlation     .... PBE
   PBE beta parameter  CBetaPBE         ....  0.030000
 LDA part of GGA corr.  LDAOpt          .... PW91-LDA
 Gradients option       PostSCFGGA      .... off
 Hybrid DFT is turned on
   Fraction HF Exchange ScalHFX         ....  0.420000
   Scaling of DF-GGA-X  ScalDFX         ....  0.580000
   Scaling of DF-GGA-C  ScalDFC         ....  1.000000
   Scaling of DF-LDA-C  ScalLDAC        ....  1.000000
   Perturbative correction              ....  0.000000
   Density functional embedding theory  .... OFF
 RI-approximation to the Coulomb term is turned on
   Number of AuxJ basis functions       .... 765
   RIJ-ON(X) (HFX calculated with O(N)) .... on
   Number of AuxJ basis functions       .... 765
   RIJ-COSX (HFX calculated with COS-X)).... on


General Settings:
 Integral files         IntName         .... reaction-0-cineb10_optts_Compound_1
 Hartree-Fock type      HFTyp           .... RHF
 Total Charge           Charge          ....    0
 Multiplicity           Mult            ....    1
 Number of Electrons    NEL             ....  106
 Basis Dimension        Dim             ....  227
 Nuclear Repulsion      ENuc            ....    934.3672553115 Eh

Convergence Acceleration:
 DIIS                   CNVDIIS         .... on
   Start iteration      DIISMaxIt       ....    12
   Startup error        DIISStart       ....  0.200000
   # of expansion vecs  DIISMaxEq       ....     5
   Bias factor          DIISBfac        ....   1.050
   Max. coefficient     DIISMaxC        ....  10.000
 Trust-Rad. Augm. Hess. CNVTRAH         .... auto
   Auto Start mean grad. ratio tolernc. ....  1.125000
   Auto Start start iteration           ....    20
   Auto Start num. interpolation iter.  ....    10
   Max. Number of Micro iterations      ....    16
   Max. Number of Macro iterations      .... Maxiter - #DIIS iter
   Number of Davidson start vectors     ....     2
   Converg. threshold I  (grad. norm)   ....   1.000e-05
   Converg. threshold II (energy diff.) ....   1.000e-08
   Grad. Scal. Fac. for Micro threshold ....   0.100
   Minimum threshold for Micro iter.    ....   0.010
   NR start threshold (gradient norm)   ....   0.001
   Initial trust radius                 ....   0.400
   Minimum AH scaling param. (alpha)    ....   1.000
   Maximum AH scaling param. (alpha)    .... 1000.000
   Orbital update algorithm             .... Taylor
   White noise on init. David. guess    .... on
   Maximum white noise                  ....   0.010
   Quad. conv. algorithm                .... NR
   COSX micro iterations for RIJONX calc.... off
 SOSCF                  CNVSOSCF        .... off
 Level Shifting         CNVShift        .... on
   Level shift para.    LevelShift      ....    0.2500
   Turn off err/grad.   ShiftErr        ....    0.0010
 Zerner damping         CNVZerner       .... off
 Static damping         CNVDamp         .... on
   Fraction old density DampFac         ....    0.7000
   Max. Damping (<1)    DampMax         ....    0.9800
   Min. Damping (>=0)   DampMin         ....    0.0000
   Turn off err/grad.   DampErr         ....    0.1000
 Fernandez-Rico         CNVRico         .... off

SCF Procedure:
 Maximum # iterations   MaxIter         ....   125
 SCF integral mode      SCFMode         .... Direct
   Integral package                     .... SHARK and LIBINT hybrid scheme
 Reset frequency        DirectResetFreq ....    20
 Integral Threshold     Thresh          ....  2.500e-11 Eh
 Primitive CutOff       TCut            ....  2.500e-12 Eh

Convergence Tolerance:
 Convergence Check Mode ConvCheckMode   .... Total+1el-Energy
 Convergence forced     ConvForced      .... 0
 Energy Change          TolE            ....  1.000e-08 Eh
 1-El. energy change                    ....  1.000e-05 Eh
 DIIS Error             TolErr          ....  5.000e-07


Diagonalization of the overlap matrix:
Smallest eigenvalue                        ... 5.797e-04
Time for diagonalization                   ...    0.010 sec
Threshold for overlap eigenvalues          ... 1.000e-08
Number of eigenvalues below threshold      ... 0
Time for construction of square roots      ...    0.005 sec
Total time needed                          ...    0.016 sec

--------------------------------
INITIAL GUESS: MINIMAL BASIS EHT
--------------------------------
The minimal basis has 81 functions
EHT matrix was diagonalized
Basis set overlap was calculated now projecting the orbitals
Using GuessMode=FMatrix for the initial guess
C*T matrix was formed
Effective Fockian was calculated
Effective Fockian was diagonalized
Initial density was built
                      ------------------
                      INITIAL GUESS DONE
                      ------------------
-------------------
DFT GRID GENERATION
-------------------

General Integration Accuracy     IntAcc      ... 4.159
Radial Grid Type                 RadialGrid  ... OptM3 with GC (2021)
Angular Grid (max. ang.)         AngularGrid ... 3 (Lebedev-194)
Angular grid pruning method      GridPruning ... 4 (adaptive)
Weight generation scheme         WeightScheme... Becke
Basis function cutoff            BFCut       ... 1.0000e-11
Integration weight cutoff        WCut        ... 1.0000e-14
Angular grids for H and He will be reduced by one unit
Partially contracted basis set               ... off
Rotationally invariant grid construction     ... off

Total number of grid points                  ...    56250
Total number of batches                      ...      891
Average number of points per batch           ...       63
Average number of grid points per atom       ...     2679
Time for grid setup =    0.187 sec

--------------------
COSX GRID GENERATION
--------------------

GRIDX 1
-------
General Integration Accuracy     IntAcc      ... 3.816
Radial Grid Type                 RadialGrid  ... OptM3 with GC (2021)
Angular Grid (max. ang.)         AngularGrid ... 1 (Lebedev-50)
Angular grid pruning method      GridPruning ... 4 (adaptive)
Weight generation scheme         WeightScheme... Becke
Basis function cutoff            BFCut       ... 1.0000e-11
Integration weight cutoff        WCut        ... 1.0000e-14
Angular grids for H and He will be reduced by one unit
Partially contracted basis set               ... on
Rotationally invariant grid construction     ... off

Total number of grid points                  ...    13556
Total number of batches                      ...      220
Average number of points per batch           ...       61
Average number of grid points per atom       ...      646
UseSFitting                                  ... on

GRIDX 2
-------
General Integration Accuracy     IntAcc      ... 4.020
Radial Grid Type                 RadialGrid  ... OptM3 with GC (2021)
Angular Grid (max. ang.)         AngularGrid ... 2 (Lebedev-110)
Angular grid pruning method      GridPruning ... 4 (adaptive)
Weight generation scheme         WeightScheme... Becke
Basis function cutoff            BFCut       ... 1.0000e-11
Integration weight cutoff        WCut        ... 1.0000e-14
Angular grids for H and He will be reduced by one unit
Partially contracted basis set               ... on
Rotationally invariant grid construction     ... off

Total number of grid points                  ...    30287
Total number of batches                      ...      483
Average number of points per batch           ...       62
Average number of grid points per atom       ...     1442
UseSFitting                                  ... on

GRIDX 3
-------
General Integration Accuracy     IntAcc      ... 4.338
Radial Grid Type                 RadialGrid  ... OptM3 with GC (2021)
Angular Grid (max. ang.)         AngularGrid ... 3 (Lebedev-194)
Angular grid pruning method      GridPruning ... 4 (adaptive)
Weight generation scheme         WeightScheme... Becke
Basis function cutoff            BFCut       ... 1.0000e-11
Integration weight cutoff        WCut        ... 1.0000e-14
Angular grids for H and He will be reduced by one unit
Partially contracted basis set               ... on
Rotationally invariant grid construction     ... off

Total number of grid points                  ...    65866
Total number of batches                      ...     1040
Average number of points per batch           ...       63
Average number of grid points per atom       ...     3136
UseSFitting                                  ... on

Time for X-Grid setup             =    0.462 sec

--------------
SCF ITERATIONS
--------------
ITER       Energy         Delta-E        Max-DP      RMS-DP      [F,P]     Damp
               ***  Starting incremental Fock matrix formation  ***
  0   -720.6333365517   0.000000000000 4.32670224  0.04398329  5.1008289 0.7000
  1   -714.7312529175   5.902083634147 4.02900296  0.05217129  3.9258435 0.7000
  2   -716.2146286904  -1.483375772878 2.27206885  0.02537445  2.6130599 0.7000
  3   -721.1197307458  -4.905102055398 0.97815546  0.01495601  1.9235950 0.7000
  4   -725.5521198711  -4.432389125285 0.59207284  0.01073982  1.2947744 0.7000
  5   -728.9590899313  -3.406970060178 0.43233780  0.00779494  0.9600947 0.7000
  6   -731.3308630257  -2.371773094447 0.33549206  0.00564168  0.7027780 0.7000
  7   -733.0255314009  -1.694668375229 0.25653201  0.00403695  0.5003243 0.7000
  8   -734.2354848454  -1.209953444498 0.18336048  0.00284426  0.3489502 0.7000
  9   -735.0920162003  -0.856531354831 0.12652536  0.00198962  0.2420681 0.7000
                               ***Turning on DIIS***
 10   -735.6963972391  -0.604381038814 0.08675936  0.00139563  0.1686969 0.7000
 11   -736.1221177799  -0.425720540775 0.05997864  0.00099261  0.1183068 0.7000
 12   -736.4215641177  -0.299446337885 0.14186086  0.00236808  0.0832251 0.0000
 13   -737.1254338504  -0.703869732628 0.00983637  0.00011607  0.0024611 0.0000
 14   -737.1256763164  -0.000242466067 0.01040274  0.00009576  0.0019695 0.0000
 15   -737.1258008956  -0.000124579158 0.00555462  0.00006339  0.0014731 0.0000
 16   -737.1258594355  -0.000058539894 0.00606508  0.00005286  0.0011165 0.0000
 17   -737.1258919179  -0.000032482393 0.00699790  0.00007208  0.0007733 0.0000
               *** Restarting incremental Fock matrix formation ***
                                   *** Resetting DIIS ***
 18   -737.1259523699  -0.000060452053 0.00241862  0.00005469  0.0004509 0.0000
 19   -737.1259562176  -0.000003847633 0.00067398  0.00001273  0.0007353 0.0000
 20   -737.1259583628  -0.000002145234 0.00115615  0.00000963  0.0002309 0.0000
 21   -737.1259591517  -0.000000788860 0.00032984  0.00000445  0.0001193 0.0000
 22   -737.1259593617  -0.000000209981 0.00062465  0.00000511  0.0000729 0.0000
 23   -737.1259594875  -0.000000125867 0.00018725  0.00000211  0.0000331 0.0000
 24   -737.1259595103  -0.000000022807 0.00015726  0.00000124  0.0000198 0.0000
 25   -737.1259595240  -0.000000013710 0.00003224  0.00000036  0.0000055 0.0000
 26   -737.1259595197   0.000000004374 0.00000512  0.00000008  0.0000060 0.0000
 27   -737.1259595186   0.000000001041 0.00000769  0.00000007  0.0000025 0.0000
                 **** Energy Check signals convergence ****

               *****************************************************
               *                     SUCCESS                       *
               *           SCF CONVERGED AFTER  28 CYCLES          *
               *****************************************************

Old exchange energy                            =    -37.407743996 Eh
New exchange energy                            =    -37.407654138 Eh
Exchange energy change after final integration =      0.000089858 Eh
Total energy after final integration           =   -737.125869659 Eh
Final COS-X integration done in                =     2.324 sec

----------------
TOTAL SCF ENERGY
----------------

Total Energy       :         -737.12586966 Eh          -20058.21465 eV

Components:
Nuclear Repulsion  :          934.36725531 Eh           25425.42562 eV
Electronic Energy  :        -1671.49312497 Eh          -45483.64027 eV
One Electron Energy:        -2915.91902308 Eh          -79346.19050 eV
Two Electron Energy:         1244.42589811 Eh           33862.55023 eV
Max COSX asymmetry :            0.00003279 Eh               0.00089 eV

Virial components:
Potential Energy   :        -1390.28001270 Eh          -37831.44246 eV
Kinetic Energy     :          653.15414304 Eh           17773.22781 eV
Virial Ratio       :            2.12856341


DFT components:
N(Alpha)           :       53.000171173350 electrons
N(Beta)            :       53.000171173350 electrons
N(Total)           :      106.000342346699 electrons
E(X)               :      -49.994617643776 Eh       
E(C)               :       -4.857459975131 Eh       
E(XC)              :      -54.852077618907 Eh       
DFET-embed. en.    :        0.000000000000 Eh       

---------------
SCF CONVERGENCE
---------------

  Last Energy change         ...    1.7678e-09  Tolerance :   1.0000e-08
  Last MAX-Density change    ...    0.0000e+00  Tolerance :   1.0000e-07
  Last RMS-Density change    ...    0.0000e+00  Tolerance :   5.0000e-09
  Last DIIS Error            ...    1.4068e-06  Tolerance :   5.0000e-07

             **** THE GBW FILE WAS UPDATED (reaction-0-cineb10_optts_Compound_1.gbw) ****
             **** DENSITY reaction-0-cineb10_optts_Compound_1.scfp WAS UPDATED ****
             **** ENERGY FILE WAS UPDATED (reaction-0-cineb10_optts_Compound_1.en.tmp) ****
             **** THE GBW FILE WAS UPDATED (reaction-0-cineb10_optts_Compound_1.gbw) ****
             **** DENSITY reaction-0-cineb10_optts_Compound_1.scfp WAS UPDATED ****
----------------
ORBITAL ENERGIES
----------------

  NO   OCC          E(Eh)            E(eV) 
   0   2.0000     -19.588929      -533.0419 
   1   2.0000     -19.579632      -532.7889 
   2   2.0000     -19.491326      -530.3860 
   3   2.0000     -19.478983      -530.0501 
   4   2.0000     -10.640990      -289.5561 
   5   2.0000     -10.553509      -287.1756 
   6   2.0000     -10.453192      -284.4458 
   7   2.0000     -10.447632      -284.2945 
   8   2.0000     -10.447032      -284.2782 
   9   2.0000     -10.444237      -284.2021 
  10   2.0000     -10.443301      -284.1767 
  11   2.0000     -10.440380      -284.0972 
  12   2.0000      -3.651296       -99.3568 
  13   2.0000      -2.299919       -62.5840 
  14   2.0000      -2.295600       -62.4664 
  15   2.0000      -2.264342       -61.6159 
  16   2.0000      -1.297482       -35.3063 
  17   2.0000      -1.213065       -33.0092 
  18   2.0000      -1.187501       -32.3135 
  19   2.0000      -1.077047       -29.3079 
  20   2.0000      -0.949518       -25.8377 
  21   2.0000      -0.832450       -22.6521 
  22   2.0000      -0.826133       -22.4802 
  23   2.0000      -0.790570       -21.5125 
  24   2.0000      -0.698420       -19.0050 
  25   2.0000      -0.675468       -18.3804 
  26   2.0000      -0.665340       -18.1048 
  27   2.0000      -0.657071       -17.8798 
  28   2.0000      -0.634000       -17.2520 
  29   2.0000      -0.597215       -16.2510 
  30   2.0000      -0.575665       -15.6646 
  31   2.0000      -0.549946       -14.9648 
  32   2.0000      -0.521579       -14.1929 
  33   2.0000      -0.510280       -13.8854 
  34   2.0000      -0.508024       -13.8240 
  35   2.0000      -0.493957       -13.4412 
  36   2.0000      -0.489486       -13.3196 
  37   2.0000      -0.475856       -12.9487 
  38   2.0000      -0.452570       -12.3150 
  39   2.0000      -0.451269       -12.2797 
  40   2.0000      -0.442932       -12.0528 
  41   2.0000      -0.432524       -11.7696 
  42   2.0000      -0.398719       -10.8497 
  43   2.0000      -0.384094       -10.4517 
  44   2.0000      -0.374453       -10.1894 
  45   2.0000      -0.363275        -9.8852 
  46   2.0000      -0.349214        -9.5026 
  47   2.0000      -0.339007        -9.2249 
  48   2.0000      -0.319381        -8.6908 
  49   2.0000      -0.313064        -8.5189 
  50   2.0000      -0.290825        -7.9138 
  51   2.0000      -0.283983        -7.7276 
  52   2.0000      -0.258214        -7.0264 
  53   0.0000      -0.051364        -1.3977 
  54   0.0000      -0.033854        -0.9212 
  55   0.0000       0.019712         0.5364 
  56   0.0000       0.023547         0.6407 
  57   0.0000       0.049236         1.3398 
  58   0.0000       0.060334         1.6418 
  59   0.0000       0.077030         2.0961 
  60   0.0000       0.079394         2.1604 
  61   0.0000       0.100887         2.7453 
  62   0.0000       0.147670         4.0183 
  63   0.0000       0.164897         4.4871 
  64   0.0000       0.176901         4.8137 
  65   0.0000       0.200301         5.4505 
  66   0.0000       0.202978         5.5233 
  67   0.0000       0.210865         5.7379 
  68   0.0000       0.228712         6.2236 
  69   0.0000       0.238302         6.4845 
  70   0.0000       0.245525         6.6811 
  71   0.0000       0.263467         7.1693 
  72   0.0000       0.296383         8.0650 
  73   0.0000       0.309337         8.4175 
  74   0.0000       0.315226         8.5777 
  75   0.0000       0.336226         9.1492 
  76   0.0000       0.339441         9.2367 
  77   0.0000       0.351013         9.5515 
  78   0.0000       0.356855         9.7105 
  79   0.0000       0.390060        10.6141 
  80   0.0000       0.430214        11.7067 
  81   0.0000       0.445091        12.1115 
  82   0.0000       0.468756        12.7555 
  83   0.0000       0.476870        12.9763 
  84   0.0000       0.497168        13.5286 
  85   0.0000       0.525900        14.3105 
  86   0.0000       0.539911        14.6917 
  87   0.0000       0.548222        14.9179 
  88   0.0000       0.557975        15.1833 
  89   0.0000       0.583400        15.8751 
  90   0.0000       0.597247        16.2519 
  91   0.0000       0.604175        16.4404 
  92   0.0000       0.613275        16.6881 
  93   0.0000       0.615562        16.7503 
  94   0.0000       0.619606        16.8603 
  95   0.0000       0.624404        16.9909 
  96   0.0000       0.638235        17.3673 
  97   0.0000       0.645573        17.5669 
  98   0.0000       0.660712        17.9789 
  99   0.0000       0.668046        18.1784 
 100   0.0000       0.682804        18.5800 
 101   0.0000       0.695688        18.9306 
 102   0.0000       0.716006        19.4835 
 103   0.0000       0.730563        19.8796 
 104   0.0000       0.762183        20.7400 
 105   0.0000       0.779615        21.2144 
 106   0.0000       0.797180        21.6924 
 107   0.0000       0.812778        22.1168 
 108   0.0000       0.833658        22.6850 
 109   0.0000       0.853209        23.2170 
 110   0.0000       0.876029        23.8380 
 111   0.0000       0.897517        24.4227 
 112   0.0000       0.913042        24.8451 
 113   0.0000       0.937200        25.5025 
 114   0.0000       0.942749        25.6535 
 115   0.0000       0.944609        25.7041 
 116   0.0000       0.956548        26.0290 
 117   0.0000       0.967764        26.3342 
 118   0.0000       0.973923        26.5018 
 119   0.0000       0.994073        27.0501 
 120   0.0000       1.006785        27.3960 
 121   0.0000       1.040243        28.3064 
 122   0.0000       1.047392        28.5010 
 123   0.0000       1.062832        28.9211 
 124   0.0000       1.076854        29.3027 
 125   0.0000       1.091111        29.6906 
 126   0.0000       1.099056        29.9068 
 127   0.0000       1.113074        30.2883 
 128   0.0000       1.142432        31.0872 
 129   0.0000       1.151093        31.3228 
 130   0.0000       1.160964        31.5914 
 131   0.0000       1.167715        31.7751 
 132   0.0000       1.185635        32.2628 
 133   0.0000       1.213351        33.0170 
 134   0.0000       1.217221        33.1223 
 135   0.0000       1.239162        33.7193 
 136   0.0000       1.254426        34.1347 
 137   0.0000       1.304010        35.4839 
 138   0.0000       1.332263        36.2527 
 139   0.0000       1.376402        37.4538 
 140   0.0000       1.418797        38.6074 
 141   0.0000       1.444941        39.3188 
 142   0.0000       1.493015        40.6270 
 143   0.0000       1.494426        40.6654 
 144   0.0000       1.514938        41.2236 
 145   0.0000       1.537697        41.8429 
 146   0.0000       1.556397        42.3517 
 147   0.0000       1.571437        42.7610 
 148   0.0000       1.585237        43.1365 
 149   0.0000       1.588449        43.2239 
 150   0.0000       1.615847        43.9694 
 151   0.0000       1.731918        47.1279 
 152   0.0000       1.759487        47.8781 
 153   0.0000       1.782788        48.5121 
 154   0.0000       1.815123        49.3920 
 155   0.0000       1.818397        49.4811 
 156   0.0000       1.847615        50.2762 
 157   0.0000       1.856715        50.5238 
 158   0.0000       1.866353        50.7860 
 159   0.0000       1.874557        51.0093 
 160   0.0000       1.900159        51.7059 
 161   0.0000       1.903107        51.7862 
 162   0.0000       1.939535        52.7774 
 163   0.0000       1.946613        52.9700 
 164   0.0000       1.953823        53.1662 
 165   0.0000       1.979313        53.8598 
 166   0.0000       1.993068        54.2341 
 167   0.0000       2.036100        55.4051 
 168   0.0000       2.051325        55.8194 
 169   0.0000       2.058050        56.0024 
 170   0.0000       2.085329        56.7447 
 171   0.0000       2.137707        58.1700 
 172   0.0000       2.160343        58.7859 
 173   0.0000       2.177817        59.2614 
 174   0.0000       2.188898        59.5629 
 175   0.0000       2.197572        59.7990 
 176   0.0000       2.216301        60.3086 
 177   0.0000       2.239921        60.9514 
 178   0.0000       2.241309        60.9891 
 179   0.0000       2.291889        62.3655 
 180   0.0000       2.304948        62.7208 
 181   0.0000       2.351745        63.9942 
 182   0.0000       2.377384        64.6919 
 183   0.0000       2.407570        65.5133 
 184   0.0000       2.439326        66.3774 
 185   0.0000       2.449573        66.6563 
 186   0.0000       2.470385        67.2226 
 187   0.0000       2.472464        67.2792 
 188   0.0000       2.505832        68.1872 
 189   0.0000       2.507974        68.2454 
 190   0.0000       2.542930        69.1966 
 191   0.0000       2.563615        69.7595 
 192   0.0000       2.594099        70.5890 
 193   0.0000       2.620998        71.3210 
 194   0.0000       2.628629        71.5286 
 195   0.0000       2.640616        71.8548 
 196   0.0000       2.700682        73.4893 
 197   0.0000       2.704334        73.5887 
 198   0.0000       2.729601        74.2762 
 199   0.0000       2.734632        74.4131 
 200   0.0000       2.771611        75.4194 
 201   0.0000       2.784581        75.7723 
 202   0.0000       2.792092        75.9767 
 203   0.0000       2.800078        76.1940 
 204   0.0000       2.810959        76.4901 
 205   0.0000       2.839494        77.2666 
 206   0.0000       2.867812        78.0371 
 207   0.0000       2.974914        80.9515 
 208   0.0000       2.998594        81.5959 
 209   0.0000       3.018980        82.1506 
 210   0.0000       3.078090        83.7591 
 211   0.0000       3.082220        83.8715 
 212   0.0000       3.161158        86.0195 
 213   0.0000       3.421120        93.0934 
 214   0.0000      13.285681       361.5217 
 215   0.0000      13.655529       371.5858 
 216   0.0000      13.712470       373.1353 
 217   0.0000      13.850641       376.8951 
 218   0.0000      13.923983       378.8908 
 219   0.0000      14.130794       384.5185 
 220   0.0000      14.149173       385.0186 
 221   0.0000      14.511027       394.8651 
 222   0.0000      25.478120       693.2949 
 223   0.0000      25.596837       696.5254 
 224   0.0000      25.665812       698.4023 
 225   0.0000      25.755314       700.8377 
 226   0.0000      51.576164      1403.4588 

                    ********************************
                    * MULLIKEN POPULATION ANALYSIS *
                    ********************************

-----------------------
MULLIKEN ATOMIC CHARGES
-----------------------
   0 C :   -0.214831
   1 C :   -0.222013
   2 C :   -0.229761
   3 C :   -0.218450
   4 C :   -0.282437
   5 C :   -0.203593
   6 H :    0.221321
   7 H :    0.218835
   8 H :    0.218758
   9 H :    0.242092
  10 H :    0.221359
  11 Pd:    0.397429
  12 O :   -0.468023
  13 O :   -0.482152
  14 O :   -0.333662
  15 C :    0.386871
  16 O :   -0.558010
  17 H :    0.503110
  18 C :    0.387262
  19 H :    0.182424
  20 H :    0.233473
Sum of atomic charges:   -0.0000000

--------------------------------
MULLIKEN REDUCED ORBITAL CHARGES
--------------------------------
  0 C s       :     3.227207  s :     3.227207
      pz      :     0.958795  p :     2.946900
      px      :     0.947406
      py      :     1.040699
      dz2     :     0.007346  d :     0.040725
      dxz     :     0.005754
      dyz     :     0.007218
      dx2y2   :     0.010805
      dxy     :     0.009602
  1 C s       :     3.247141  s :     3.247141
      pz      :     1.011956  p :     2.934993
      px      :     1.019475
      py      :     0.903562
      dz2     :     0.005284  d :     0.039879
      dxz     :     0.007076
      dyz     :     0.009281
      dx2y2   :     0.008710
      dxy     :     0.009528
  2 C s       :     3.249598  s :     3.249598
      pz      :     0.984544  p :     2.940824
      px      :     0.975918
      py      :     0.980362
      dz2     :     0.006498  d :     0.039339
      dxz     :     0.005420
      dyz     :     0.011908
      dx2y2   :     0.008105
      dxy     :     0.007408
  3 C s       :     3.247694  s :     3.247694
      pz      :     0.941205  p :     2.930682
      px      :     0.961321
      py      :     1.028156
      dz2     :     0.008977  d :     0.040073
      dxz     :     0.005862
      dyz     :     0.008262
      dx2y2   :     0.009291
      dxy     :     0.007681
  4 C s       :     3.315887  s :     3.315887
      pz      :     0.963123  p :     2.921803
      px      :     0.972238
      py      :     0.986442
      dz2     :     0.006731  d :     0.044747
      dxz     :     0.008856
      dyz     :     0.006775
      dx2y2   :     0.013218
      dxy     :     0.009167
  5 C s       :     3.237884  s :     3.237884
      pz      :     1.023029  p :     2.924728
      px      :     1.005795
      py      :     0.895904
      dz2     :     0.006119  d :     0.040982
      dxz     :     0.007401
      dyz     :     0.009847
      dx2y2   :     0.008738
      dxy     :     0.008877
  6 H s       :     0.778679  s :     0.778679
  7 H s       :     0.781165  s :     0.781165
  8 H s       :     0.781242  s :     0.781242
  9 H s       :     0.757908  s :     0.757908
 10 H s       :     0.778641  s :     0.778641
 11 Pds       :     2.504734  s :     2.504734
      pz      :     2.069556  p :     6.287943
      px      :     2.111368
      py      :     2.107020
      dz2     :     1.932503  d :     8.805538
      dxz     :     1.888128
      dyz     :     1.924131
      dx2y2   :     1.719713
      dxy     :     1.341063
      f0      :     0.000384  f :     0.004356
      f+1     :     0.000407
      f-1     :     0.000385
      f+2     :     0.000405
      f-2     :     0.000536
      f+3     :     0.001151
      f-3     :     0.001087
 12 O s       :     3.804281  s :     3.804281
      pz      :     1.616547  p :     4.635284
      px      :     1.649374
      py      :     1.369363
      dz2     :     0.003430  d :     0.028459
      dxz     :     0.001394
      dyz     :     0.008359
      dx2y2   :     0.008639
      dxy     :     0.006637
 13 O s       :     3.814500  s :     3.814500
      pz      :     1.540474  p :     4.638351
      px      :     1.457859
      py      :     1.640018
      dz2     :     0.005945  d :     0.029301
      dxz     :     0.004657
      dyz     :     0.006098
      dx2y2   :     0.004630
      dxy     :     0.007971
 14 O s       :     3.779589  s :     3.779589
      pz      :     1.407099  p :     4.520185
      px      :     1.442418
      py      :     1.670668
      dz2     :     0.011007  d :     0.033888
      dxz     :     0.009604
      dyz     :     0.007642
      dx2y2   :     0.003243
      dxy     :     0.002392
 15 C s       :     3.051751  s :     3.051751
      pz      :     0.783654  p :     2.418058
      px      :     0.751406
      py      :     0.882998
      dz2     :     0.046265  d :     0.143320
      dxz     :     0.028755
      dyz     :     0.043995
      dx2y2   :     0.009428
      dxy     :     0.014877
 16 O s       :     3.770817  s :     3.770817
      pz      :     1.601927  p :     4.758246
      px      :     1.665293
      py      :     1.491026
      dz2     :     0.007967  d :     0.028947
      dxz     :     0.005253
      dyz     :     0.005200
      dx2y2   :     0.002172
      dxy     :     0.008355
 17 H s       :     0.496890  s :     0.496890
 18 C s       :     3.046901  s :     3.046901
      pz      :     0.762490  p :     2.427670
      px      :     0.844182
      py      :     0.820998
      dz2     :     0.017118  d :     0.138167
      dxz     :     0.012834
      dyz     :     0.032668
      dx2y2   :     0.033828
      dxy     :     0.041720
 19 H s       :     0.817576  s :     0.817576
 20 H s       :     0.766527  s :     0.766527


                     *******************************
                     * LOEWDIN POPULATION ANALYSIS *
                     *******************************

----------------------
LOEWDIN ATOMIC CHARGES
----------------------
   0 C :   -0.127268
   1 C :   -0.132891
   2 C :   -0.138065
   3 C :   -0.127095
   4 C :   -0.068876
   5 C :   -0.104867
   6 H :    0.143392
   7 H :    0.137914
   8 H :    0.136043
   9 H :    0.153293
  10 H :    0.139570
  11 Pd:   -0.306257
  12 O :   -0.202428
  13 O :   -0.174757
  14 O :    0.000415
  15 C :    0.172516
  16 O :   -0.252575
  17 H :    0.377741
  18 C :    0.138474
  19 H :    0.108339
  20 H :    0.127382

-------------------------------
LOEWDIN REDUCED ORBITAL CHARGES
-------------------------------
  0 C s       :     2.878314  s :     2.878314
      pz      :     1.035251  p :     3.156014
      px      :     1.046643
      py      :     1.074119
      dz2     :     0.014995  d :     0.092940
      dxz     :     0.014563
      dyz     :     0.017526
      dx2y2   :     0.024111
      dxy     :     0.021745
  1 C s       :     2.893828  s :     2.893828
      pz      :     1.032618  p :     3.148568
      px      :     1.029591
      py      :     1.086359
      dz2     :     0.011570  d :     0.090495
      dxz     :     0.012066
      dyz     :     0.022006
      dx2y2   :     0.021815
      dxy     :     0.023039
  2 C s       :     2.894534  s :     2.894534
      pz      :     1.048361  p :     3.154914
      px      :     1.026628
      py      :     1.079925
      dz2     :     0.014726  d :     0.088617
      dxz     :     0.012001
      dyz     :     0.026250
      dx2y2   :     0.018445
      dxy     :     0.017196
  3 C s       :     2.892961  s :     2.892961
      pz      :     1.045759  p :     3.143315
      px      :     1.022366
      py      :     1.075191
      dz2     :     0.019861  d :     0.090818
      dxz     :     0.014515
      dyz     :     0.019526
      dx2y2   :     0.019497
      dxy     :     0.017420
  4 C s       :     2.878125  s :     2.878125
      pz      :     0.987483  p :     3.087390
      px      :     1.035436
      py      :     1.064470
      dz2     :     0.013583  d :     0.103361
      dxz     :     0.020921
      dyz     :     0.015643
      dx2y2   :     0.030809
      dxy     :     0.022404
  5 C s       :     2.877230  s :     2.877230
      pz      :     1.040824  p :     3.133875
      px      :     1.008515
      py      :     1.084536
      dz2     :     0.012946  d :     0.093762
      dxz     :     0.012534
      dyz     :     0.024379
      dx2y2   :     0.022836
      dxy     :     0.021067
  6 H s       :     0.856608  s :     0.856608
  7 H s       :     0.862086  s :     0.862086
  8 H s       :     0.863957  s :     0.863957
  9 H s       :     0.846707  s :     0.846707
 10 H s       :     0.860430  s :     0.860430
 11 Pds       :     2.497977  s :     2.497977
      pz      :     2.122326  p :     6.641320
      px      :     2.275077
      py      :     2.243916
      dz2     :     1.986536  d :     9.161109
      dxz     :     1.945581
      dyz     :     1.952526
      dx2y2   :     1.798193
      dxy     :     1.478274
      f0      :     0.000489  f :     0.005851
      f+1     :     0.000527
      f-1     :     0.000554
      f+2     :     0.000556
      f-2     :     0.000681
      f+3     :     0.001653
      f-3     :     0.001391
 12 O s       :     3.485980  s :     3.485980
      pz      :     1.584733  p :     4.661415
      px      :     1.620339
      py      :     1.456343
      dz2     :     0.007112  d :     0.055033
      dxz     :     0.002323
      dyz     :     0.013026
      dx2y2   :     0.019429
      dxy     :     0.013144
 13 O s       :     3.471875  s :     3.471875
      pz      :     1.537036  p :     4.645667
      px      :     1.477682
      py      :     1.630949
      dz2     :     0.008409  d :     0.057215
      dxz     :     0.012072
      dyz     :     0.011007
      dx2y2   :     0.010101
      dxy     :     0.015626
 14 O s       :     3.420222  s :     3.420222
      pz      :     1.478778  p :     4.510360
      px      :     1.418865
      py      :     1.612717
      dz2     :     0.023101  d :     0.069003
      dxz     :     0.018213
      dyz     :     0.016155
      dx2y2   :     0.005961
      dxy     :     0.005572
 15 C s       :     2.841393  s :     2.841393
      pz      :     0.941086  p :     2.669507
      px      :     0.787857
      py      :     0.940564
      dz2     :     0.107600  d :     0.316584
      dxz     :     0.062299
      dyz     :     0.099737
      dx2y2   :     0.017838
      dxy     :     0.029110
 16 O s       :     3.443628  s :     3.443628
      pz      :     1.619505  p :     4.754578
      px      :     1.632983
      py      :     1.502090
      dz2     :     0.014822  d :     0.054369
      dxz     :     0.007696
      dyz     :     0.014059
      dx2y2   :     0.005134
      dxy     :     0.012658
 17 H s       :     0.622259  s :     0.622259
 18 C s       :     2.853382  s :     2.853382
      pz      :     0.806481  p :     2.703393
      px      :     0.929915
      py      :     0.966997
      dz2     :     0.036308  d :     0.304751
      dxz     :     0.027160
      dyz     :     0.073053
      dx2y2   :     0.076635
      dxy     :     0.091595
 19 H s       :     0.891661  s :     0.891661
 20 H s       :     0.872618  s :     0.872618


                      *****************************
                      * MAYER POPULATION ANALYSIS *
                      *****************************

  NA   - Mulliken gross atomic population
  ZA   - Total nuclear charge
  QA   - Mulliken gross atomic charge
  VA   - Mayer's total valence
  BVA  - Mayer's bonded valence
  FA   - Mayer's free valence

  ATOM       NA         ZA         QA         VA         BVA        FA
  0 C      6.2148     6.0000    -0.2148     3.7722     3.7722    -0.0000
  1 C      6.2220     6.0000    -0.2220     3.8399     3.8399     0.0000
  2 C      6.2298     6.0000    -0.2298     3.8157     3.8157    -0.0000
  3 C      6.2184     6.0000    -0.2184     3.8274     3.8274    -0.0000
  4 C      6.2824     6.0000    -0.2824     3.8159     3.8159    -0.0000
  5 C      6.2036     6.0000    -0.2036     3.8064     3.8064    -0.0000
  6 H      0.7787     1.0000     0.2213     0.9113     0.9113    -0.0000
  7 H      0.7812     1.0000     0.2188     0.9137     0.9137    -0.0000
  8 H      0.7812     1.0000     0.2188     0.9140     0.9140     0.0000
  9 H      0.7579     1.0000     0.2421     0.9006     0.9006     0.0000
 10 H      0.7786     1.0000     0.2214     0.9124     0.9124     0.0000
 11 Pd    17.6026    18.0000     0.3974     2.4061     2.4061    -0.0000
 12 O      8.4680     8.0000    -0.4680     2.1524     2.1524     0.0000
 13 O      8.4822     8.0000    -0.4822     2.1574     2.1574     0.0000
 14 O      8.3337     8.0000    -0.3337     2.3039     2.3039    -0.0000
 15 C      5.6131     6.0000     0.3869     3.9275     3.9275     0.0000
 16 O      8.5580     8.0000    -0.5580     1.9772     1.9772    -0.0000
 17 H      0.4969     1.0000     0.5031     0.7383     0.7383     0.0000
 18 C      5.6127     6.0000     0.3873     3.9382     3.9382     0.0000
 19 H      0.8176     1.0000     0.1824     0.9167     0.9167     0.0000
 20 H      0.7665     1.0000     0.2335     0.8932     0.8932     0.0000

  Mayer bond orders larger than 0.100000
B(  0-C ,  1-C ) :   1.4331 B(  0-C ,  4-C ) :   1.3549 B(  0-C ,  6-H ) :   0.9082 
B(  1-C ,  2-C ) :   1.4314 B(  1-C ,  7-H ) :   0.9173 B(  2-C ,  3-C ) :   1.4125 
B(  2-C ,  8-H ) :   0.9193 B(  3-C ,  5-C ) :   1.4445 B(  3-C , 10-H ) :   0.9169 
B(  4-C ,  5-C ) :   1.3818 B(  4-C , 11-Pd) :   0.9146 B(  5-C ,  9-H ) :   0.9054 
B( 11-Pd, 12-O ) :   0.3721 B( 11-Pd, 13-O ) :   0.5410 B( 11-Pd, 14-O ) :   0.3738 
B( 12-O , 13-O ) :   0.1158 B( 12-O , 18-C ) :   1.5881 B( 13-O , 18-C ) :   1.4339 
B( 14-O , 15-C ) :   1.8234 B( 15-C , 16-O ) :   1.1786 B( 15-C , 20-H ) :   0.8771 
B( 16-O , 17-H ) :   0.6762 B( 18-C , 19-H ) :   0.8846 

-------
TIMINGS
-------

Total SCF time: 0 days 0 hours 0 min 30 sec 

Total time                  ....      30.271 sec
Sum of individual times     ....      29.867 sec  ( 98.7%)

Fock matrix formation       ....      28.593 sec  ( 94.5%)
  Split-RI-J                ....       3.820 sec  ( 13.4% of F)
  Chain of spheres X        ....      21.311 sec  ( 74.5% of F)
  XC integration            ....       3.152 sec  ( 11.0% of F)
    Basis function eval.    ....       1.341 sec  ( 42.5% of XC)
    Density eval.           ....       0.660 sec  ( 20.9% of XC)
    XC-Functional eval.     ....       0.262 sec  (  8.3% of XC)
    XC-Potential eval.      ....       0.679 sec  ( 21.5% of XC)
Diagonalization             ....       0.348 sec  (  1.2%)
Density matrix formation    ....       0.017 sec  (  0.1%)
Population analysis         ....       0.014 sec  (  0.0%)
Initial guess               ....       0.026 sec  (  0.1%)
Orbital Transformation      ....       0.000 sec  (  0.0%)
Orbital Orthonormalization  ....       0.000 sec  (  0.0%)
DIIS solution               ....       0.220 sec  (  0.7%)
Grid generation             ....       0.649 sec  (  2.1%)

Maximum memory used throughout the entire SCF-calculation: 73.2 MB


-------------------------------------------------------------------------------
                          DFT DISPERSION CORRECTION                            
                                                                               
                              DFTD3 V3.1  Rev 1                                
                          USING Becke-Johnson damping                          
-------------------------------------------------------------------------------
The PBEh-3c composite method is recognized
Using three-body term ABC
Active option DFTDOPT                   ...         4   

molecular C6(AA) [au] = 6837.769425 


            DFT-D V3
 parameters
 s6 scaling factor         :     1.0000 
 a1 scaling factor         :     0.4860 
 s8 scaling factor         :     0.0000 
 a2 scaling factor         :     4.5000 
 Damping factor alpha9(ATM):    16.0000 
 ad hoc parameters k1-k3   :    16.0000     1.3333    -4.0000 

[...]
 ** NOTE ** -> element pd will be treated as ni
 ** NOTE ** -> element pd will be treated as ni
 ** NOTE ** -> element pd will be treated as ni
   26      -737.135038   -5.081966    0.002823  0.000727
 ** NOTE ** -> element pd will be treated as ni
 ** NOTE ** -> element pd will be treated as ni
 ** NOTE ** -> element pd will be treated as ni
 ** NOTE ** -> element pd will be treated as ni
 ** NOTE ** -> element pd will be treated as ni
 ** NOTE ** -> element pd will be treated as ni
   27      -737.135079   -5.107742    0.002697  0.000646
 ** NOTE ** -> element pd will be treated as ni
 ** NOTE ** -> element pd will be treated as ni
 ** NOTE ** -> element pd will be treated as ni
 ** NOTE ** -> element pd will be treated as ni
   28      -737.135150   -5.152224    0.002795  0.000555
 ** NOTE ** -> element pd will be treated as ni
 ** NOTE ** -> element pd will be treated as ni
 ** NOTE ** -> element pd will be treated as ni
 ** NOTE ** -> element pd will be treated as ni
   29      -737.135226   -5.200104    0.002564  0.000539
 ** NOTE ** -> element pd will be treated as ni
 ** NOTE ** -> element pd will be treated as ni
 ** NOTE ** -> element pd will be treated as ni
 ** NOTE ** -> element pd will be treated as ni
   30      -737.135301   -5.246657    0.002592  0.000523
 ** NOTE ** -> element pd will be treated as ni
 ** NOTE ** -> element pd will be treated as ni
 ** NOTE ** -> element pd will be treated as ni
 ** NOTE ** -> element pd will be treated as ni
   31      -737.135372   -5.291635    0.002409  0.000507
 ** NOTE ** -> element pd will be treated as ni
 ** NOTE ** -> element pd will be treated as ni
 ** NOTE ** -> element pd will be treated as ni
 ** NOTE ** -> element pd will be treated as ni
   32      -737.135442   -5.335331    0.002392  0.000492
 ** NOTE ** -> element pd will be treated as ni
 ** NOTE ** -> element pd will be treated as ni
 ** NOTE ** -> element pd will be treated as ni
 ** NOTE ** -> element pd will be treated as ni
   33      -737.135509   -5.377337    0.002268  0.000478
 ** NOTE ** -> element pd will be treated as ni
 ** NOTE ** -> element pd will be treated as ni
 ** NOTE ** -> element pd will be treated as ni
 ** NOTE ** -> element pd will be treated as ni
   34      -737.135574   -5.418018    0.002259  0.000465
 ** NOTE ** -> element pd will be treated as ni
 ** NOTE ** -> element pd will be treated as ni
 ** NOTE ** -> element pd will be treated as ni
 ** NOTE ** -> element pd will be treated as ni
   35      -737.135636   -5.456999    0.002121  0.000448
 ** NOTE ** -> element pd will be treated as ni
 ** NOTE ** -> element pd will be treated as ni
 ** NOTE ** -> element pd will be treated as ni
 ** NOTE ** -> element pd will be treated as ni
   36      -737.135696   -5.495008    0.002043  0.000435
 ** NOTE ** -> element pd will be treated as ni
 ** NOTE ** -> element pd will be treated as ni
 ** NOTE ** -> element pd will be treated as ni
 ** NOTE ** -> element pd will be treated as ni
   37      -737.135754   -5.531427    0.001981  0.000421

                      ***********************HURRAY********************
                      ***            THE IRC HAS CONVERGED          ***
                      *************************************************


         *************************************************************
         *                          BACKWARD IRC                     *
         *************************************************************

 ** NOTE ** -> element pd will be treated as ni
Iteration    E(Eh)      dE(kcal/mol)  max(|G|)   RMS(G) 
Convergence thresholds                0.002000  0.000500            
    0      -737.127709   -0.482593    0.024452  0.005960
 ** NOTE ** -> element pd will be treated as ni
 ** NOTE ** -> element pd will be treated as ni
 ** NOTE ** -> element pd will be treated as ni
 ** NOTE ** -> element pd will be treated as ni
 ** NOTE ** -> element pd will be treated as ni
 ** NOTE ** -> element pd will be treated as ni
    1      -737.128763   -1.144246    0.016319  0.003438
 ** NOTE ** -> element pd will be treated as ni
 ** NOTE ** -> element pd will be treated as ni
 ** NOTE ** -> element pd will be treated as ni
 ** NOTE ** -> element pd will be treated as ni
 ** NOTE ** -> element pd will be treated as ni
 ** NOTE ** -> element pd will be treated as ni
    2      -737.129236   -1.441247    0.011438  0.002091
 ** NOTE ** -> element pd will be treated as ni
 ** NOTE ** -> element pd will be treated as ni
 ** NOTE ** -> element pd will be treated as ni
 ** NOTE ** -> element pd will be treated as ni
    3      -737.129702   -1.733435    0.008320  0.001759
 ** NOTE ** -> element pd will be treated as ni
 ** NOTE ** -> element pd will be treated as ni
 ** NOTE ** -> element pd will be treated as ni
 ** NOTE ** -> element pd will be treated as ni
    4      -737.130243   -2.072815    0.008571  0.001900
 ** NOTE ** -> element pd will be treated as ni
 ** NOTE ** -> element pd will be treated as ni
 ** NOTE ** -> element pd will be treated as ni
 ** NOTE ** -> element pd will be treated as ni
    5      -737.130810   -2.428721    0.009126  0.001984
 ** NOTE ** -> element pd will be treated as ni
 ** NOTE ** -> element pd will be treated as ni
 ** NOTE ** -> element pd will be treated as ni
 ** NOTE ** -> element pd will be treated as ni
    6      -737.131422   -2.812764    0.009580  0.002131
 ** NOTE ** -> element pd will be treated as ni
 ** NOTE ** -> element pd will be treated as ni
 ** NOTE ** -> element pd will be treated as ni
 ** NOTE ** -> element pd will be treated as ni
    7      -737.132057   -3.211486    0.010293  0.002207
 ** NOTE ** -> element pd will be treated as ni
 ** NOTE ** -> element pd will be treated as ni
 ** NOTE ** -> element pd will be treated as ni
 ** NOTE ** -> element pd will be treated as ni
    8      -737.132731   -3.634461    0.010836  0.002332
 ** NOTE ** -> element pd will be treated as ni
 ** NOTE ** -> element pd will be treated as ni
 ** NOTE ** -> element pd will be treated as ni
 ** NOTE ** -> element pd will be treated as ni
    9      -737.133424   -4.069217    0.011434  0.002395
 ** NOTE ** -> element pd will be treated as ni
 ** NOTE ** -> element pd will be treated as ni
 ** NOTE ** -> element pd will be treated as ni
 ** NOTE ** -> element pd will be treated as ni
   10      -737.134148   -4.523384    0.011889  0.002494
 ** NOTE ** -> element pd will be treated as ni
 ** NOTE ** -> element pd will be treated as ni
 ** NOTE ** -> element pd will be treated as ni
 ** NOTE ** -> element pd will be treated as ni
   11      -737.134887   -4.987098    0.012385  0.002546
 ** NOTE ** -> element pd will be treated as ni
 ** NOTE ** -> element pd will be treated as ni
 ** NOTE ** -> element pd will be treated as ni
 ** NOTE ** -> element pd will be treated as ni
   12      -737.135649   -5.465519    0.012757  0.002618
 ** NOTE ** -> element pd will be treated as ni
 ** NOTE ** -> element pd will be treated as ni
 ** NOTE ** -> element pd will be treated as ni
 ** NOTE ** -> element pd will be treated as ni
   13      -737.136423   -5.951256    0.013132  0.002655
 ** NOTE ** -> element pd will be treated as ni
 ** NOTE ** -> element pd will be treated as ni
 ** NOTE ** -> element pd will be treated as ni
 ** NOTE ** -> element pd will be treated as ni
   14      -737.137213   -6.446433    0.013390  0.002695
 ** NOTE ** -> element pd will be treated as ni
 ** NOTE ** -> element pd will be treated as ni
 ** NOTE ** -> element pd will be treated as ni
 ** NOTE ** -> element pd will be treated as ni
   15      -737.138008   -6.945720    0.013605  0.002710
 ** NOTE ** -> element pd will be treated as ni
 ** NOTE ** -> element pd will be treated as ni
 ** NOTE ** -> element pd will be treated as ni
 ** NOTE ** -> element pd will be treated as ni
   16      -737.138809   -7.448206    0.013710  0.002716
 ** NOTE ** -> element pd will be treated as ni
 ** NOTE ** -> element pd will be treated as ni
 ** NOTE ** -> element pd will be treated as ni
 ** NOTE ** -> element pd will be treated as ni
   17      -737.139609   -7.950193    0.013738  0.002704
 ** NOTE ** -> element pd will be treated as ni
 ** NOTE ** -> element pd will be treated as ni
 ** NOTE ** -> element pd will be treated as ni
 ** NOTE ** -> element pd will be treated as ni
   18      -737.140405   -8.449739    0.013642  0.002679
 ** NOTE ** -> element pd will be treated as ni
 ** NOTE ** -> element pd will be treated as ni
 ** NOTE ** -> element pd will be treated as ni
 ** NOTE ** -> element pd will be treated as ni
   19      -737.141191   -8.942923    0.013451  0.002641
 ** NOTE ** -> element pd will be treated as ni
 ** NOTE ** -> element pd will be treated as ni
 ** NOTE ** -> element pd will be treated as ni
 ** NOTE ** -> element pd will be treated as ni
   20      -737.141961   -9.426400    0.013136  0.002599
 ** NOTE ** -> element pd will be treated as ni
 ** NOTE ** -> element pd will be treated as ni
 ** NOTE ** -> element pd will be treated as ni
 ** NOTE ** -> element pd will be treated as ni
   21      -737.142708   -9.894991    0.012793  0.002519
 ** NOTE ** -> element pd will be treated as ni
 ** NOTE ** -> element pd will be treated as ni
 ** NOTE ** -> element pd will be treated as ni
 ** NOTE ** -> element pd will be treated as ni
   22      -737.143438   -10.352797    0.012305  0.002456
 ** NOTE ** -> element pd will be treated as ni
 ** NOTE ** -> element pd will be treated as ni
 ** NOTE ** -> element pd will be treated as ni
 ** NOTE ** -> element pd will be treated as ni
   23      -737.144135   -10.790283    0.011845  0.002347
 ** NOTE ** -> element pd will be treated as ni
 ** NOTE ** -> element pd will be treated as ni
 ** NOTE ** -> element pd will be treated as ni
 ** NOTE ** -> element pd will be treated as ni
   24      -737.144810   -11.213937    0.011207  0.002275
 ** NOTE ** -> element pd will be treated as ni
 ** NOTE ** -> element pd will be treated as ni
 ** NOTE ** -> element pd will be treated as ni
 ** NOTE ** -> element pd will be treated as ni
   25      -737.145445   -11.612261    0.010667  0.002132
 ** NOTE ** -> element pd will be treated as ni
 ** NOTE ** -> element pd will be treated as ni
 ** NOTE ** -> element pd will be treated as ni
 ** NOTE ** -> element pd will be treated as ni
   26      -737.146057   -11.996176    0.009899  0.002044
 ** NOTE ** -> element pd will be treated as ni
 ** NOTE ** -> element pd will be treated as ni
 ** NOTE ** -> element pd will be treated as ni
 ** NOTE ** -> element pd will be treated as ni
   27      -737.146622   -12.350830    0.009294  0.001882
 ** NOTE ** -> element pd will be treated as ni
 ** NOTE ** -> element pd will be treated as ni
 ** NOTE ** -> element pd will be treated as ni
 ** NOTE ** -> element pd will be treated as ni
   28      -737.147160   -12.688216    0.008387  0.001791
 ** NOTE ** -> element pd will be treated as ni
 ** NOTE ** -> element pd will be treated as ni
 ** NOTE ** -> element pd will be treated as ni
 ** NOTE ** -> element pd will be treated as ni
   29      -737.147644   -12.992061    0.007754  0.001602
 ** NOTE ** -> element pd will be treated as ni
 ** NOTE ** -> element pd will be treated as ni
 ** NOTE ** -> element pd will be treated as ni
 ** NOTE ** -> element pd will be treated as ni
   30      -737.148100   -13.278289    0.006681  0.001507
 ** NOTE ** -> element pd will be treated as ni
 ** NOTE ** -> element pd will be treated as ni
 ** NOTE ** -> element pd will be treated as ni
 ** NOTE ** -> element pd will be treated as ni
   31      -737.148497   -13.527381    0.006112  0.001302
 ** NOTE ** -> element pd will be treated as ni
 ** NOTE ** -> element pd will be treated as ni
 ** NOTE ** -> element pd will be treated as ni
 ** NOTE ** -> element pd will be treated as ni
   32      -737.148864   -13.757503    0.004823  0.001183
 ** NOTE ** -> element pd will be treated as ni
 ** NOTE ** -> element pd will be treated as ni
 ** NOTE ** -> element pd will be treated as ni
 ** NOTE ** -> element pd will be treated as ni
   33      -737.149174   -13.952049    0.004443  0.001001
 ** NOTE ** -> element pd will be treated as ni
 ** NOTE ** -> element pd will be treated as ni
 ** NOTE ** -> element pd will be treated as ni
 ** NOTE ** -> element pd will be treated as ni
   34      -737.149447   -14.123347    0.003098  0.000849
 ** NOTE ** -> element pd will be treated as ni
 ** NOTE ** -> element pd will be treated as ni
 ** NOTE ** -> element pd will be treated as ni
 ** NOTE ** -> element pd will be treated as ni
   35      -737.149676   -14.267620    0.002725  0.000693
 ** NOTE ** -> element pd will be treated as ni
 ** NOTE ** -> element pd will be treated as ni
 ** NOTE ** -> element pd will be treated as ni
 ** NOTE ** -> element pd will be treated as ni
   36      -737.149869   -14.388316    0.002094  0.000582
 ** NOTE ** -> element pd will be treated as ni
 ** NOTE ** -> element pd will be treated as ni
 ** NOTE ** -> element pd will be treated as ni
 ** NOTE ** -> element pd will be treated as ni
   37      -737.150020   -14.483289    0.001819  0.000553
 ** NOTE ** -> element pd will be treated as ni
 ** NOTE ** -> element pd will be treated as ni
 ** NOTE ** -> element pd will be treated as ni
 ** NOTE ** -> element pd will be treated as ni
 ** NOTE ** -> element pd will be treated as ni
 ** NOTE ** -> element pd will be treated as ni
   38      -737.150049   -14.501537    0.001365  0.000473

                      ***********************HURRAY********************
                      ***            THE IRC HAS CONVERGED          ***
                      *************************************************


---------------------------------------------------------------
                       IRC PATH SUMMARY              
---------------------------------------------------------------
All gradients are in Eh/Bohr.

Step        E(Eh)      dE(kcal/mol)  max(|G|)   RMS(G) 
   1      -737.150049   -14.501537    0.001365  0.000473
   2      -737.150020   -14.483289    0.001819  0.000553
   3      -737.149869   -14.388316    0.002094  0.000582
   4      -737.149676   -14.267620    0.002725  0.000693
   5      -737.149447   -14.123347    0.003098  0.000849
   6      -737.149174   -13.952049    0.004443  0.001001
   7      -737.148864   -13.757503    0.004823  0.001183
   8      -737.148497   -13.527381    0.006112  0.001302
   9      -737.148100   -13.278289    0.006681  0.001507
  10      -737.147644   -12.992061    0.007754  0.001602
  11      -737.147160   -12.688216    0.008387  0.001791
  12      -737.146622   -12.350830    0.009294  0.001882
  13      -737.146057   -11.996176    0.009899  0.002044
  14      -737.145445   -11.612261    0.010667  0.002132
  15      -737.144810   -11.213937    0.011207  0.002275
  16      -737.144135   -10.790283    0.011845  0.002347
  17      -737.143438   -10.352797    0.012305  0.002456
  18      -737.142708   -9.894991    0.012793  0.002519
  19      -737.141961   -9.426400    0.013136  0.002599
  20      -737.141191   -8.942923    0.013451  0.002641
  21      -737.140405   -8.449739    0.013642  0.002679
  22      -737.139609   -7.950193    0.013738  0.002704
  23      -737.138809   -7.448206    0.013710  0.002716
  24      -737.138008   -6.945720    0.013605  0.002710
  25      -737.137213   -6.446433    0.013390  0.002695
  26      -737.136423   -5.951256    0.013132  0.002655
  27      -737.135649   -5.465519    0.012757  0.002618
  28      -737.134887   -4.987098    0.012385  0.002546
  29      -737.134148   -4.523384    0.011889  0.002494
  30      -737.133424   -4.069217    0.011434  0.002395
  31      -737.132731   -3.634461    0.010836  0.002332
  32      -737.132057   -3.211486    0.010293  0.002207
  33      -737.131422   -2.812764    0.009580  0.002131
  34      -737.130810   -2.428721    0.009126  0.001984
  35      -737.130243   -2.072815    0.008571  0.001900
  36      -737.129702   -1.733435    0.008320  0.001759
  37      -737.129236   -1.441247    0.011438  0.002091
  38      -737.128763   -1.144246    0.016319  0.003438
  39      -737.127709   -0.482593    0.024452  0.005960
  40      -737.126940    0.000000    0.000155  0.000067 <= TS
  41      -737.127451   -0.320791    0.025178  0.005869
  42      -737.128379   -0.903349    0.013869  0.003304
  43      -737.128717   -1.115501    0.008678  0.001853
  44      -737.128991   -1.287342    0.004200  0.001060
  45      -737.129305   -1.484543    0.004465  0.001042
  46      -737.129619   -1.681532    0.004547  0.001041
  47      -737.129934   -1.879009    0.004565  0.001048
  48      -737.130249   -2.076988    0.004697  0.001051
  49      -737.130567   -2.276277    0.004751  0.001060
  50      -737.130886   -2.476169    0.004875  0.001061
  51      -737.131205   -2.676407    0.004897  0.001061
  52      -737.131522   -2.875360    0.004952  0.001051
  53      -737.131834   -3.071109    0.004829  0.001036
  54      -737.132137   -3.261325    0.004888  0.001008
  55      -737.132429   -3.444453    0.004595  0.000972
  56      -737.132708   -3.620062    0.004631  0.000934
  57      -737.132974   -3.786597    0.004273  0.000887
  58      -737.133228   -3.945976    0.004304  0.000851
  59      -737.133468   -4.096730    0.003964  0.000806
  60      -737.133700   -4.242092    0.003973  0.000774
  61      -737.133920   -4.380194    0.003638  0.000745
  62      -737.134131   -4.512590    0.003773  0.000722
  63      -737.134331   -4.638260    0.003427  0.000686
  64      -737.134526   -4.760394    0.003368  0.000657
  65      -737.134711   -4.876675    0.003062  0.000636
  66      -737.134885   -4.985989    0.003231  0.000636
  67      -737.135038   -5.081966    0.002823  0.000727
  68      -737.135079   -5.107742    0.002697  0.000646
  69      -737.135150   -5.152224    0.002795  0.000555
  70      -737.135226   -5.200104    0.002564  0.000539
  71      -737.135301   -5.246657    0.002592  0.000523
  72      -737.135372   -5.291635    0.002409  0.000507
  73      -737.135442   -5.335331    0.002392  0.000492
  74      -737.135509   -5.377337    0.002268  0.000478
  75      -737.135574   -5.418018    0.002259  0.000465
  76      -737.135636   -5.456999    0.002121  0.000448
  77      -737.135696   -5.495008    0.002043  0.000435
  78      -737.135754   -5.531427    0.001981  0.000421

Timings for individual modules:

Sum of individual times         ...     5819.028 sec (=  96.984 min)
GTO integral calculation        ...      240.421 sec (=   4.007 min)   4.1 %
SCF iterations                  ...     4713.281 sec (=  78.555 min)  81.0 %
SCF Gradient evaluation         ...      865.326 sec (=  14.422 min)  14.9 %
================================================================================

cite the ECPs for Pd [Def2-ECP] as follows:
Ce-Yb(ecp-28): M. Dolg, H. Stoll, H.Preuss, J. Chem. Phys., 1989, 90, 1730-1734.
Y-Cd(ecp-28), Hf-Hg(ecp-46): D. Andrae,U. Haeussermann, M. Dolg, H. Stoll, H. Preuss, Theor. Chim. Acta, 1990, 77, 123-141.
In-Sb(ecp-28), Tl-Bi(ecp-46): B. Metz, H. Stoll, M. Dolg, J. Chem. Phys., 2000, 113, 2563-2569.
Te-Xe(ecp-28), Po-Rn(ecp-46): K. A. Peterson, D. Figgen, E. Goll, H. Stoll, M. Dolg, J. Chem. Phys., 2003, 119, 11113-11123.
Rb(ecp-28), Cs(ecp-46): T. Leininger, A. Nicklass, W. Kuechle, H. Stoll, M. Dolg, A. Bergner, Chem. Phys. Lett., 1996, 255, 274-280.
Sr(ecp-28), Ba(ecp-46): M. Kaupp, P. V. Schleyer, H. Stoll and H. Preuss, J. Chem. Phys., 1991, 94, 1360-1366.
La(ecp-46): M. Dolg, H. Stoll, A. Savin, H. Preuss, Theor. Chim. Acta, 1989, 75, 173-194.
Lu(ecp-28): X. Cao, M. Dolg, J. Chem. Phys., 2001, 115, 7348-7355.

ECP parameters for Pd [Def2-ECP] have been obtained from:
TURBOMOLE (7.0.2)

----- Orbital basis set information -----
Your calculation utilizes the basis: def2-SVP
   F. Weigend and R. Ahlrichs, Phys. Chem. Chem. Phys. 7, 3297 (2005).

                             ****ORCA TERMINATED NORMALLY****
TOTAL RUN TIME: 0 days 1 hours 55 minutes 27 seconds 882 msec
