
                                 *****************
                                 * O   R   C   A *
                                 *****************

                                            #,                                       
                                            ###                                      
                                            ####                                     
                                            #####                                    
                                            ######                                   
                                           ########,                                 
                                     ,,################,,,,,                         
                               ,,#################################,,                 
                          ,,##########################################,,             
                       ,#########################################, ''#####,          
                    ,#############################################,,   '####,        
                  ,##################################################,,,,####,       
                ,###########''''           ''''###############################       
              ,#####''   ,,,,##########,,,,          '''####'''          '####       
            ,##' ,,,,###########################,,,                        '##       
           ' ,,###''''                  '''############,,,                           
         ,,##''                                '''############,,,,        ,,,,,,###''
      ,#''                                            '''#######################'''  
     '                                                          ''''####''''         
             ,#######,   #######,   ,#######,      ##                                
            ,#'     '#,  ##    ##  ,#'     '#,    #''#        ######   ,####,        
            ##       ##  ##   ,#'  ##            #'  '#       #        #'  '#        
            ##       ##  #######   ##           ,######,      #####,   #    #        
            '#,     ,#'  ##    ##  '#,     ,#' ,#      #,         ##   #,  ,#        
             '#######'   ##     ##  '#######'  #'      '#     #####' # '####'        



                  #######################################################
                  #                        -***-                        #
                  #          Department of theory and spectroscopy      #
                  #    Directorship and core code : Frank Neese         #
                  #        Max Planck Institute fuer Kohlenforschung    #
                  #                Kaiser Wilhelm Platz 1               #
                  #                 D-45470 Muelheim/Ruhr               #
                  #                      Germany                        #
                  #                                                     #
                  #                  All rights reserved                #
                  #                        -***-                        #
                  #######################################################


                         Program Version 5.0.3 -  RELEASE  -


 With contributions from (in alphabetic order):
   Daniel Aravena         : Magnetic Suceptibility
   Michael Atanasov       : Ab Initio Ligand Field Theory (pilot matlab implementation)
   Alexander A. Auer      : GIAO ZORA, VPT2 properties, NMR spectrum
   Ute Becker             : Parallelization
   Giovanni Bistoni       : ED, misc. LED, open-shell LED, HFLD
   Martin Brehm           : Molecular dynamics
   Dmytro Bykov           : SCF Hessian
   Vijay G. Chilkuri      : MRCI spin determinant printing, contributions to CSF-ICE
   Dipayan Datta          : RHF DLPNO-CCSD density
   Achintya Kumar Dutta   : EOM-CC, STEOM-CC
   Dmitry Ganyushin       : Spin-Orbit,Spin-Spin,Magnetic field MRCI
   Miquel Garcia          : C-PCM and meta-GGA Hessian, CC/C-PCM, Gaussian charge scheme
   Yang Guo               : DLPNO-NEVPT2, F12-NEVPT2, CIM, IAO-localization
   Andreas Hansen         : Spin unrestricted coupled pair/coupled cluster methods
   Benjamin Helmich-Paris : MC-RPA, TRAH-SCF, COSX integrals
   Lee Huntington         : MR-EOM, pCC
   Robert Izsak           : Overlap fitted RIJCOSX, COSX-SCS-MP3, EOM
   Marcus Kettner         : VPT2
   Christian Kollmar      : KDIIS, OOCD, Brueckner-CCSD(T), CCSD density, CASPT2, CASPT2-K
   Simone Kossmann        : Meta GGA functionals, TD-DFT gradient, OOMP2, MP2 Hessian
   Martin Krupicka        : Initial AUTO-CI
   Lucas Lang             : DCDCAS
   Marvin Lechner         : AUTO-CI (C++ implementation), FIC-MRCC
   Dagmar Lenk            : GEPOL surface, SMD
   Dimitrios Liakos       : Extrapolation schemes; Compound Job, initial MDCI parallelization
   Dimitrios Manganas     : Further ROCIS development; embedding schemes
   Dimitrios Pantazis     : SARC Basis sets
   Anastasios Papadopoulos: AUTO-CI, single reference methods and gradients
   Taras Petrenko         : DFT Hessian,TD-DFT gradient, ASA, ECA, R-Raman, ABS, FL, XAS/XES, NRVS
   Peter Pinski           : DLPNO-MP2, DLPNO-MP2 Gradient
   Christoph Reimann      : Effective Core Potentials
   Marius Retegan         : Local ZFS, SOC
   Christoph Riplinger    : Optimizer, TS searches, QM/MM, DLPNO-CCSD(T), (RO)-DLPNO pert. Triples
   Tobias Risthaus        : Range-separated hybrids, TD-DFT gradient, RPA, STAB
   Michael Roemelt        : Original ROCIS implementation
   Masaaki Saitow         : Open-shell DLPNO-CCSD energy and density
   Barbara Sandhoefer     : DKH picture change effects
   Avijit Sen             : IP-ROCIS
   Kantharuban Sivalingam : CASSCF convergence, NEVPT2, FIC-MRCI
   Bernardo de Souza      : ESD, SOC TD-DFT
   Georgi Stoychev        : AutoAux, RI-MP2 NMR, DLPNO-MP2 response
   Willem Van den Heuvel  : Paramagnetic NMR
   Boris Wezisla          : Elementary symmetry handling
   Frank Wennmohs         : Technical directorship


 We gratefully acknowledge several colleagues who have allowed us to
 interface, adapt or use parts of their codes:
   Stefan Grimme, W. Hujo, H. Kruse, P. Pracht,  : VdW corrections, initial TS optimization,
                  C. Bannwarth, S. Ehlert          DFT functionals, gCP, sTDA/sTD-DF
   Ed Valeev, F. Pavosevic, A. Kumar             : LibInt (2-el integral package), F12 methods
   Garnet Chan, S. Sharma, J. Yang, R. Olivares  : DMRG
   Ulf Ekstrom                                   : XCFun DFT Library
   Mihaly Kallay                                 : mrcc  (arbitrary order and MRCC methods)
   Jiri Pittner, Ondrej Demel                    : Mk-CCSD
   Frank Weinhold                                : gennbo (NPA and NBO analysis)
   Christopher J. Cramer and Donald G. Truhlar   : smd solvation model
   Lars Goerigk                                  : TD-DFT with DH, B97 family of functionals
   V. Asgeirsson, H. Jonsson                     : NEB implementation
   FAccTs GmbH                                   : IRC, NEB, NEB-TS, DLPNO-Multilevel, CI-OPT
                                                   MM, QMMM, 2- and 3-layer-ONIOM, Crystal-QMMM,
                                                   LR-CPCM, SF, NACMEs, symmetry and pop. for TD-DFT,
                                                   nearIR, NL-DFT gradient (VV10), updates on ESD,
                                                   ML-optimized integration grids
   S Lehtola, MJT Oliveira, MAL Marques          : LibXC Library
   Liviu Ungur et al                             : ANISO software


 Your calculation uses the libint2 library for the computation of 2-el integrals
 For citations please refer to: http://libint.valeyev.net

 Your ORCA version has been built with support for libXC version: 5.1.0
 For citations please refer to: https://tddft.org/programs/libxc/

 This ORCA versions uses:
   CBLAS   interface :  Fast vector & matrix operations
   LAPACKE interface :  Fast linear algebra routines
   SCALAPACK package :  Parallel linear algebra routines
   Shared memory     :  Shared parallel matrices
   BLAS/LAPACK       :  OpenBLAS 0.3.15  USE64BITINT DYNAMIC_ARCH NO_AFFINITY SkylakeX SINGLE_THREADED
        Core in use  :  SkylakeX
   Copyright (c) 2011-2014, The OpenBLAS Project


Your calculation utilizes the geometrical counterpoise correction gCP
Please cite in your paper:
H.Kruse, S. Grimme J.Chem.Phys., 136, (2012), 154101 
   

Your calculation utilizes the atom-pairwise dispersion correction
with the Becke-Johnson damping scheme (D3BJ)
Cite in your paper:
S.Grimme, S.Ehrlich, L.Goerigk, J Comput Chem, (2011), 32, 1456–1465 
S.Grimme, J.Antony, S.Ehrlich and H.Krieg, J.Chem.Phys., 132, (2010), 154104 
   

Your calculation employs the composite approach PBEh-3c.
Please cite in your paper:
S. Grimme, J. G. Brandenburg, C. Bannwarth, A. Hansen J.Chem.Phys., 143, (2015), 054107 
   

================================================================================

cite the ECPs for Pd [Def2-ECP] as follows:
Ce-Yb(ecp-28): M. Dolg, H. Stoll, H.Preuss, J. Chem. Phys., 1989, 90, 1730-1734.
Y-Cd(ecp-28), Hf-Hg(ecp-46): D. Andrae,U. Haeussermann, M. Dolg, H. Stoll, H. Preuss, Theor. Chim. Acta, 1990, 77, 123-141.
In-Sb(ecp-28), Tl-Bi(ecp-46): B. Metz, H. Stoll, M. Dolg, J. Chem. Phys., 2000, 113, 2563-2569.
Te-Xe(ecp-28), Po-Rn(ecp-46): K. A. Peterson, D. Figgen, E. Goll, H. Stoll, M. Dolg, J. Chem. Phys., 2003, 119, 11113-11123.
Rb(ecp-28), Cs(ecp-46): T. Leininger, A. Nicklass, W. Kuechle, H. Stoll, M. Dolg, A. Bergner, Chem. Phys. Lett., 1996, 255, 274-280.
Sr(ecp-28), Ba(ecp-46): M. Kaupp, P. V. Schleyer, H. Stoll and H. Preuss, J. Chem. Phys., 1991, 94, 1360-1366.
La(ecp-46): M. Dolg, H. Stoll, A. Savin, H. Preuss, Theor. Chim. Acta, 1989, 75, 173-194.
Lu(ecp-28): X. Cao, M. Dolg, J. Chem. Phys., 2001, 115, 7348-7355.

ECP parameters for Pd [Def2-ECP] have been obtained from:
TURBOMOLE (7.0.2)

----- Orbital basis set information -----
Your calculation utilizes the basis: def2-mSVP

----- AuxJ basis set information -----
Your calculation utilizes the auxiliary basis: def2/J
   F. Weigend, Phys. Chem. Chem. Phys. 8, 1057 (2006).

================================================================================
                                        WARNINGS
                       Please study these warnings very carefully!
================================================================================


INFO   : the flag for use of the SHARK integral package has been found!

================================================================================
                                       INPUT FILE
================================================================================
NAME = 2_6_orca.inp
|  1> ! EnGrad PBEh-3c
|  2> %output 
|  3> xyzfile=True 
|  4> end 
|  5> %scf 
|  6> maxiter 250 
|  7> end
|  8> %output
|  9> Print[P_Hirshfeld] = 1
| 10> end
| 11> % maxcore
| 12> 4000
| 13> *xyz 0 1
| 14> C   -1.83287056   0.17565996  -0.11373254 
| 15> C   -1.70582224  -0.67543328  -1.24421742 
| 16> C   -1.04119881  -1.89610027  -1.15208907 
| 17> C   -0.43751971  -2.17571274   0.07015995 
| 18> C   -1.31932895  -0.14357851   1.12067532 
| 19> C   -0.57291713  -1.29420933   1.17525891 
| 20> H   -2.38634621   1.08804034  -0.34359870 
| 21> H   -2.17394953  -0.43262407  -2.21846829 
| 22> H   -1.02039563  -2.60441437  -1.98759972 
| 23> H   -0.01651112  -1.62977009   2.05142734 
| 24> H    0.09808542  -3.14252254   0.15075944 
| 25> Pd   1.44160624   1.25576988   0.09813992 
| 26> O    2.50717549   0.80753715  -1.66035160 
| 27> O    2.59276420  -0.43065648   0.09590857 
| 28> O    0.33503024   2.90897554  -0.05011286 
| 29> C    0.14296191   2.96983826   1.18428117 
| 30> O    0.67913590   2.08488039   1.91147801 
| 31> H   -1.51107245   0.41391133   1.97207446 
| 32> C    2.99268746  -0.18824119  -1.07528959 
| 33> H    3.71075201  -0.86457382  -1.58843411 
| 34> H   -0.48417924   3.76867399   1.60463958 
| 35> *
| 36> 
| 37>                          ****END OF INPUT****
================================================================================

                     *******************************
                     * Energy+Gradient Calculation *
                     *******************************

---------------------------------
CARTESIAN COORDINATES (ANGSTROEM)
---------------------------------
  C     -1.832871    0.175660   -0.113733
  C     -1.705822   -0.675433   -1.244217
  C     -1.041199   -1.896100   -1.152089
  C     -0.437520   -2.175713    0.070160
  C     -1.319329   -0.143579    1.120675
  C     -0.572917   -1.294209    1.175259
  H     -2.386346    1.088040   -0.343599
  H     -2.173950   -0.432624   -2.218468
  H     -1.020396   -2.604414   -1.987600
  H     -0.016511   -1.629770    2.051427
  H      0.098085   -3.142523    0.150759
  Pd     1.441606    1.255770    0.098140
  O      2.507175    0.807537   -1.660352
  O      2.592764   -0.430656    0.095909
  O      0.335030    2.908976   -0.050113
  C      0.142962    2.969838    1.184281
  O      0.679136    2.084880    1.911478
  H     -1.511072    0.413911    1.972074
  C      2.992687   -0.188241   -1.075290
  H      3.710752   -0.864574   -1.588434
  H     -0.484179    3.768674    1.604640

----------------------------
CARTESIAN COORDINATES (A.U.)
----------------------------
  NO LB      ZA    FRAG     MASS         X           Y           Z
   0 C     6.0000    0    12.011   -3.463623    0.331949   -0.214923
   1 C     6.0000    0    12.011   -3.223537   -1.276384   -2.351230
   2 C     6.0000    0    12.011   -1.967581   -3.583110   -2.177133
   3 C     6.0000    0    12.011   -0.826792   -4.111501    0.132583
   4 C     6.0000    0    12.011   -2.493170   -0.271324    2.117769
   5 C     6.0000    0    12.011   -1.082656   -2.445701    2.220917
   6 H     1.0000    0     1.008   -4.509541    2.056098   -0.649307
   7 H     1.0000    0     1.008   -4.108169   -0.817541   -4.192298
   8 H     1.0000    0     1.008   -1.928268   -4.921630   -3.756019
   9 H     1.0000    0     1.008   -0.031201   -3.079819    3.876636
  10 H     1.0000    0     1.008    0.185355   -5.938507    0.284894
  11 Pd   18.0000*   0   106.400    2.724241    2.373061    0.185458
  12 O     8.0000    0    15.999    4.737875    1.526024   -3.137610
  13 O     8.0000    0    15.999    4.899614   -0.813823    0.181241
  14 O     8.0000    0    15.999    0.633115    5.497167   -0.094700
  15 C     6.0000    0    12.011    0.270159    5.612181    2.237967
  16 O     8.0000    0    15.999    1.283381    3.939853    3.612170
  17 H     1.0000    0     1.008   -2.855513    0.782179    3.726681
  18 C     6.0000    0    12.011    5.655360   -0.355724   -2.032003
  19 H     1.0000    0     1.008    7.012305   -1.633808   -3.001705
  20 H     1.0000    0     1.008   -0.914966    7.121762    3.032329
* core charge reduced due to ECP

--------------------------------
INTERNAL COORDINATES (ANGSTROEM)
--------------------------------
 C      0   0   0     0.000000000000     0.00000000     0.00000000
 C      1   0   0     1.420738203434     0.00000000     0.00000000
 C      2   1   0     1.392924921543   120.99797706     0.00000000
 C      3   2   1     1.391583362953   116.17808040   355.52757769
 C      1   2   3     1.374554819117   122.82236266   359.95662125
 C      5   1   2     1.372611109261   115.69394392     5.18537641
 H      1   2   3     1.091609685036   112.23945276   180.55471952
 H      2   1   3     1.107819583596   122.05137245   176.49348772
 H      3   2   1     1.095545381452   121.68197097   173.93465128
 H      6   5   1     1.090806944122   124.55504877   173.53891290
 H      4   3   2     1.108192367077   116.66942125   180.30882777
 Pd     5   1   2     3.259833996422    86.27515690    87.74712770
 O     12   5   1     2.104434088467   126.83639509   306.30073505
 O     12   5   1     2.041862751386    97.08220204   245.57504884
 O     12   5   1     1.994888038164    84.79295586    61.62065287
 C     15  12   5     1.250729041549    92.99017811    65.39863708
 O     16  15  12     1.264692936382   117.92617696     0.96587690
 H      5   1   2     1.035587266766   122.96426140   187.94742536
 C     13  12   5     1.252834358952    88.58426374   280.41516171
 H     19  13  12     1.111917183416   121.21194675   180.31552825
 H     16  15  12     1.099156830669   120.02827716   181.60440800

---------------------------
INTERNAL COORDINATES (A.U.)
---------------------------
 C      0   0   0     0.000000000000     0.00000000     0.00000000
 C      1   0   0     2.684806112490     0.00000000     0.00000000
 C      2   1   0     2.632246626829   120.99797706     0.00000000
 C      3   2   1     2.629711448502   116.17808040   355.52757769
 C      1   2   3     2.597532164194   122.82236266   359.95662125
 C      5   1   2     2.593859084881   115.69394392     5.18537641
 H      1   2   3     2.062843349855   112.23945276   180.55471952
 H      2   1   3     2.093475618792   122.05137245   176.49348772
 H      3   2   1     2.070280738226   121.68197097   173.93465128
 H      6   5   1     2.061326389370   124.55504877   173.53891290
 H      4   3   2     2.094180077477   116.66942125   180.30882777
 Pd     5   1   2     6.160193495284    86.27515690    87.74712770
 O     12   5   1     3.976804094090   126.83639509   306.30073505
 O     12   5   1     3.858561403174    97.08220204   245.57504884
 O     12   5   1     3.769792059965    84.79295586    61.62065287
 C     15  12   5     2.363535356270    92.99017811    65.39863708
 O     16  15  12     2.389923293266   117.92617696     0.96587690
 H      5   1   2     1.956976321964   122.96426140   187.94742536
 C     13  12   5     2.367513829587    88.58426374   280.41516171
 H     19  13  12     2.101218960257   121.21194675   180.31552825
 H     16  15  12     2.077105388193   120.02827716   181.60440800

---------------------
BASIS SET INFORMATION
---------------------
There are 4 groups of distinct atoms

 Group   1 Type C   : 8s4p1d contracted to 4s2p1d pattern {5111/31/1}
 Group   2 Type H   : 4s contracted to 2s pattern {31}
 Group   3 Type Pd  : 7s6p5d1f contracted to 5s3p2d1f pattern {31111/411/41/1}
 Group   4 Type O   : 8s4p1d contracted to 4s2p1d pattern {5111/31/1}

Atom   0C    basis set group =>   1
Atom   1C    basis set group =>   1
Atom   2C    basis set group =>   1
Atom   3C    basis set group =>   1
Atom   4C    basis set group =>   1
Atom   5C    basis set group =>   1
Atom   6H    basis set group =>   2
Atom   7H    basis set group =>   2
Atom   8H    basis set group =>   2
Atom   9H    basis set group =>   2
Atom  10H    basis set group =>   2
Atom  11Pd   basis set group =>   3
Atom  12O    basis set group =>   4
Atom  13O    basis set group =>   4
Atom  14O    basis set group =>   4
Atom  15C    basis set group =>   1
Atom  16O    basis set group =>   4
Atom  17H    basis set group =>   2
Atom  18C    basis set group =>   1
Atom  19H    basis set group =>   2
Atom  20H    basis set group =>   2
---------------------------------
AUXILIARY/J BASIS SET INFORMATION
---------------------------------
There are 4 groups of distinct atoms

 Group   1 Type C   : 12s5p4d2f1g contracted to 6s4p3d1f1g pattern {711111/2111/211/2/1}
 Group   2 Type H   : 5s2p1d contracted to 3s1p1d pattern {311/2/1}
 Group   3 Type Pd  : 11s5p5d3f3g contracted to 8s5p5d2f3g pattern {41111111/11111/11111/21/111}
 Group   4 Type O   : 12s5p4d2f1g contracted to 6s4p3d1f1g pattern {711111/2111/211/2/1}

Atom   0C    basis set group =>   1
Atom   1C    basis set group =>   1
Atom   2C    basis set group =>   1
Atom   3C    basis set group =>   1
Atom   4C    basis set group =>   1
Atom   5C    basis set group =>   1
Atom   6H    basis set group =>   2
Atom   7H    basis set group =>   2
Atom   8H    basis set group =>   2
Atom   9H    basis set group =>   2
Atom  10H    basis set group =>   2
Atom  11Pd   basis set group =>   3
Atom  12O    basis set group =>   4
Atom  13O    basis set group =>   4
Atom  14O    basis set group =>   4
Atom  15C    basis set group =>   1
Atom  16O    basis set group =>   4
Atom  17H    basis set group =>   2
Atom  18C    basis set group =>   1
Atom  19H    basis set group =>   2
Atom  20H    basis set group =>   2
-------------------------
ECP PARAMETER INFORMATION
-------------------------

 Group 1, Type Pd ECP Def2-ECP (replacing 28 core electrons, lmax=3)

Atom  11Pd   ECP group =>   1

------------------------------------------------------------------------------
                           ORCA GTO INTEGRAL CALCULATION
                           -- RI-GTO INTEGRALS CHOSEN --
------------------------------------------------------------------------------
------------------------------------------------------------------------------
                   ___                                                        
                  /   \      - P O W E R E D   B Y -                         
                 /     \                                                     
                 |  |  |   _    _      __       _____    __    __             
                 |  |  |  | |  | |    /  \     |  _  \  |  |  /  |          
                  \  \/   | |  | |   /    \    | | | |  |  | /  /          
                 / \  \   | |__| |  /  /\  \   | |_| |  |  |/  /          
                |  |  |   |  __  | /  /__\  \  |    /   |      \           
                |  |  |   | |  | | |   __   |  |    \   |  |\   \          
                \     /   | |  | | |  |  |  |  | |\  \  |  | \   \       
                 \___/    |_|  |_| |__|  |__|  |_| \__\ |__|  \__/        
                                                                              
                      - O R C A' S   B I G   F R I E N D -                    
                                      &                                       
                       - I N T E G R A L  F E E D E R -                       
                                                                              
 v1 FN, 2020, v2 2021                                                         
------------------------------------------------------------------------------


Reading SHARK input file 2_6_orca.SHARKINP.tmp ... ok
----------------------
SHARK INTEGRAL PACKAGE
----------------------

Number of atoms                             ...     21
Number of basis functions                   ...    227
Number of shells                            ...    111
Maximum angular momentum                    ...      3
Integral batch strategy                     ... SHARK/LIBINT Hybrid
RI-J (if used) integral strategy            ... SPLIT-RIJ (Revised 2003 algorithm where possible)
Printlevel                                  ...      1
Contraction scheme used                     ... SEGMENTED contraction
Coulomb Range Separation                    ... NOT USED
Exchange Range Separation                   ... NOT USED
Finite Nucleus Model                        ... NOT USED
Auxiliary Coulomb fitting basis             ... AVAILABLE
   # of basis functions in Aux-J            ...    765
   # of shells in Aux-J                     ...    243
   Maximum angular momentum in Aux-J        ...      4
Auxiliary J/K fitting basis                 ... NOT available
Auxiliary Correlation fitting basis         ... NOT available
Auxiliary 'external' fitting basis          ... NOT available
Integral threshold                          ...     2.500000e-11
Primitive cut-off                           ...     2.500000e-12
Primitive pair pre-selection threshold      ...     2.500000e-12

Calculating pre-screening integrals         ... done (  0.1 sec) Dimension = 111
Organizing shell pair data                  ... done (  0.0 sec)
Shell pair information
Total number of shell pairs                 ...      6216
Shell pairs after pre-screening             ...      5060
Total number of primitive shell pairs       ...     21723
Primitive shell pairs kept                  ...     11884
          la=0 lb=0:   1761 shell pairs
          la=1 lb=0:   1644 shell pairs
          la=1 lb=1:    371 shell pairs
          la=2 lb=0:    733 shell pairs
          la=2 lb=1:    358 shell pairs
          la=2 lb=2:     97 shell pairs
          la=3 lb=0:     54 shell pairs
          la=3 lb=1:     27 shell pairs
          la=3 lb=2:     14 shell pairs
          la=3 lb=3:      1 shell pairs

Calculating one electron integrals          ... done (  0.0 sec)
Calculating ECP integrals                   ... done (  0.2 sec)
Calculating RI/J V-Matrix + Cholesky decomp.... done (  0.0 sec)
Calculating Nuclear repulsion               ... done (  0.0 sec) ENN=    939.209685837612 Eh

SHARK setup successfully completed in   0.5 seconds

Maximum memory used throughout the entire GTOINT-calculation: 46.1 MB
-------------------------------------------------------------------------------
                                 ORCA SCF
-------------------------------------------------------------------------------

------------
SCF SETTINGS
------------
Hamiltonian:
 Density Functional     Method          .... DFT(GTOs)
 Exchange Functional    Exchange        .... PBE
   PBE kappa parameter   XKappa         ....  1.024500
   PBE mue parameter    XMuePBE         ....  0.123457
 Correlation Functional Correlation     .... PBE
   PBE beta parameter  CBetaPBE         ....  0.030000
 LDA part of GGA corr.  LDAOpt          .... PW91-LDA
 Gradients option       PostSCFGGA      .... off
 Hybrid DFT is turned on
   Fraction HF Exchange ScalHFX         ....  0.420000
   Scaling of DF-GGA-X  ScalDFX         ....  0.580000
   Scaling of DF-GGA-C  ScalDFC         ....  1.000000
   Scaling of DF-LDA-C  ScalLDAC        ....  1.000000
   Perturbative correction              ....  0.000000
   Density functional embedding theory  .... OFF
 RI-approximation to the Coulomb term is turned on
   Number of AuxJ basis functions       .... 765
   RIJ-ON(X) (HFX calculated with O(N)) .... on
   Number of AuxJ basis functions       .... 765
   RIJ-COSX (HFX calculated with COS-X)).... on


General Settings:
 Integral files         IntName         .... 2_6_orca
 Hartree-Fock type      HFTyp           .... RHF
 Total Charge           Charge          ....    0
 Multiplicity           Mult            ....    1
 Number of Electrons    NEL             ....  106
 Basis Dimension        Dim             ....  227
 Nuclear Repulsion      ENuc            ....    939.2096858376 Eh

Convergence Acceleration:
 DIIS                   CNVDIIS         .... on
   Start iteration      DIISMaxIt       ....    12
   Startup error        DIISStart       ....  0.200000
   # of expansion vecs  DIISMaxEq       ....     5
   Bias factor          DIISBfac        ....   1.050
   Max. coefficient     DIISMaxC        ....  10.000
 Trust-Rad. Augm. Hess. CNVTRAH         .... auto
   Auto Start mean grad. ratio tolernc. ....  1.125000
   Auto Start start iteration           ....    20
   Auto Start num. interpolation iter.  ....    10
   Max. Number of Micro iterations      ....    16
   Max. Number of Macro iterations      .... Maxiter - #DIIS iter
   Number of Davidson start vectors     ....     2
   Converg. threshold I  (grad. norm)   ....   1.000e-05
   Converg. threshold II (energy diff.) ....   1.000e-08
   Grad. Scal. Fac. for Micro threshold ....   0.100
   Minimum threshold for Micro iter.    ....   0.010
   NR start threshold (gradient norm)   ....   0.001
   Initial trust radius                 ....   0.400
   Minimum AH scaling param. (alpha)    ....   1.000
   Maximum AH scaling param. (alpha)    .... 1000.000
   Orbital update algorithm             .... Taylor
   White noise on init. David. guess    .... on
   Maximum white noise                  ....   0.010
   Quad. conv. algorithm                .... NR
   COSX micro iterations for RIJONX calc.... off
 SOSCF                  CNVSOSCF        .... off
 Level Shifting         CNVShift        .... on
   Level shift para.    LevelShift      ....    0.2500
   Turn off err/grad.   ShiftErr        ....    0.0010
 Zerner damping         CNVZerner       .... off
 Static damping         CNVDamp         .... on
   Fraction old density DampFac         ....    0.7000
   Max. Damping (<1)    DampMax         ....    0.9800
   Min. Damping (>=0)   DampMin         ....    0.0000
   Turn off err/grad.   DampErr         ....    0.1000
 Fernandez-Rico         CNVRico         .... off

SCF Procedure:
 Maximum # iterations   MaxIter         ....   250
 SCF integral mode      SCFMode         .... Direct
   Integral package                     .... SHARK and LIBINT hybrid scheme
 Reset frequency        DirectResetFreq ....    20
 Integral Threshold     Thresh          ....  2.500e-11 Eh
 Primitive CutOff       TCut            ....  2.500e-12 Eh

Convergence Tolerance:
 Convergence Check Mode ConvCheckMode   .... Total+1el-Energy
 Convergence forced     ConvForced      .... 0
 Energy Change          TolE            ....  1.000e-08 Eh
 1-El. energy change                    ....  1.000e-05 Eh
 DIIS Error             TolErr          ....  5.000e-07


Diagonalization of the overlap matrix:
Smallest eigenvalue                        ... 5.003e-04
Time for diagonalization                   ...    0.008 sec
Threshold for overlap eigenvalues          ... 1.000e-08
Number of eigenvalues below threshold      ... 0
Time for construction of square roots      ...    0.003 sec
Total time needed                          ...    0.012 sec

--------------------------------
INITIAL GUESS: MINIMAL BASIS EHT
--------------------------------
The minimal basis has 81 functions
EHT matrix was diagonalized
Basis set overlap was calculated now projecting the orbitals
Using GuessMode=FMatrix for the initial guess
C*T matrix was formed
Effective Fockian was calculated
Effective Fockian was diagonalized
Initial density was built
                      ------------------
                      INITIAL GUESS DONE
                      ------------------
-------------------
DFT GRID GENERATION
-------------------

General Integration Accuracy     IntAcc      ... 4.159
Radial Grid Type                 RadialGrid  ... OptM3 with GC (2021)
Angular Grid (max. ang.)         AngularGrid ... 3 (Lebedev-194)
Angular grid pruning method      GridPruning ... 4 (adaptive)
Weight generation scheme         WeightScheme... Becke
Basis function cutoff            BFCut       ... 1.0000e-11
Integration weight cutoff        WCut        ... 1.0000e-14
Angular grids for H and He will be reduced by one unit
Partially contracted basis set               ... off
Rotationally invariant grid construction     ... off

Total number of grid points                  ...    56260
Total number of batches                      ...      890
Average number of points per batch           ...       63
Average number of grid points per atom       ...     2679
Time for grid setup =    0.682 sec

--------------------
COSX GRID GENERATION
--------------------

GRIDX 1
-------
General Integration Accuracy     IntAcc      ... 3.816
Radial Grid Type                 RadialGrid  ... OptM3 with GC (2021)
Angular Grid (max. ang.)         AngularGrid ... 1 (Lebedev-50)
Angular grid pruning method      GridPruning ... 4 (adaptive)
Weight generation scheme         WeightScheme... Becke
Basis function cutoff            BFCut       ... 1.0000e-11
Integration weight cutoff        WCut        ... 1.0000e-14
Angular grids for H and He will be reduced by one unit
Partially contracted basis set               ... on
Rotationally invariant grid construction     ... off

Total number of grid points                  ...    13566
Total number of batches                      ...      220
Average number of points per batch           ...       61
Average number of grid points per atom       ...      646
UseSFitting                                  ... on

GRIDX 2
-------
General Integration Accuracy     IntAcc      ... 4.020
Radial Grid Type                 RadialGrid  ... OptM3 with GC (2021)
Angular Grid (max. ang.)         AngularGrid ... 2 (Lebedev-110)
Angular grid pruning method      GridPruning ... 4 (adaptive)
Weight generation scheme         WeightScheme... Becke
Basis function cutoff            BFCut       ... 1.0000e-11
Integration weight cutoff        WCut        ... 1.0000e-14
Angular grids for H and He will be reduced by one unit
Partially contracted basis set               ... on
Rotationally invariant grid construction     ... off

Total number of grid points                  ...    30247
Total number of batches                      ...      486
Average number of points per batch           ...       62
Average number of grid points per atom       ...     1440
UseSFitting                                  ... on

GRIDX 3
-------
General Integration Accuracy     IntAcc      ... 4.338
Radial Grid Type                 RadialGrid  ... OptM3 with GC (2021)
Angular Grid (max. ang.)         AngularGrid ... 3 (Lebedev-194)
Angular grid pruning method      GridPruning ... 4 (adaptive)
Weight generation scheme         WeightScheme... Becke
Basis function cutoff            BFCut       ... 1.0000e-11
Integration weight cutoff        WCut        ... 1.0000e-14
Angular grids for H and He will be reduced by one unit
Partially contracted basis set               ... on
Rotationally invariant grid construction     ... off

Total number of grid points                  ...    65797
Total number of batches                      ...     1040
Average number of points per batch           ...       63
Average number of grid points per atom       ...     3133
UseSFitting                                  ... on

Time for X-Grid setup             =    1.805 sec

--------------
SCF ITERATIONS
--------------
ITER       Energy         Delta-E        Max-DP      RMS-DP      [F,P]     Damp
               ***  Starting incremental Fock matrix formation  ***
  0   -716.2349895376   0.000000000000 5.21579366  0.04212951  5.0048224 0.7000
  1   -711.2829113052   4.952078232397 4.25686069  0.06047785  3.8860585 0.7000
  2   -708.7298730334   2.553038271779 3.40705407  0.03285591  2.5963393 0.7000
  3   -712.9411544619  -4.211281428457 3.06448933  0.04061699  1.9253938 0.7000
  4   -715.0623519033  -2.121197441430 2.57720172  0.02903494  1.2418805 0.7000
  5   -719.9534090334  -4.891057130067 1.52026598  0.01952061  0.9678344 0.7000
  6   -724.8423645873  -4.888955553892 0.92338446  0.01365170  0.6382028 0.7000
  7   -728.4308631598  -3.588498572495 0.73027566  0.00988484  0.4954689 0.7000
  8   -730.9524259792  -2.521562819424 0.57651044  0.00716220  0.3720102 0.7000
  9   -732.7675602311  -1.815134251882 0.42433336  0.00511052  0.2653593 0.7000
                               ***Turning on DIIS***
 10   -734.0647249013  -1.297164670224 0.29761780  0.00358972  0.1834431 0.7000
 11   -734.9838640750  -0.919139173724 0.19835611  0.00249027  0.1260099 0.7000
 12   -735.6329427867  -0.649078711631 0.46168265  0.00585488  0.0894693 0.0000
 13   -737.1678910422  -1.534948255505 0.00679054  0.00014098  0.0035727 0.0000
 14   -737.1682407325  -0.000349690340 0.00463621  0.00008816  0.0028428 0.0000
 15   -737.1683475674  -0.000106834835 0.00354302  0.00005619  0.0012942 0.0000
 16   -737.1683979013  -0.000050333947 0.00221391  0.00003378  0.0010537 0.0000
 17   -737.1684153792  -0.000017477915 0.00411888  0.00004796  0.0008487 0.0000
               *** Restarting incremental Fock matrix formation ***
                                   *** Resetting DIIS ***
 18   -737.1685698782  -0.000154498946 0.00195285  0.00004544  0.0004763 0.0000
 19   -737.1685752574  -0.000005379272 0.00090153  0.00001093  0.0004813 0.0000
 20   -737.1685762996  -0.000001042173 0.00093946  0.00001058  0.0004280 0.0000
 21   -737.1685774126  -0.000001113030 0.00084136  0.00000831  0.0001588 0.0000
 22   -737.1685778329  -0.000000420223 0.00064532  0.00000612  0.0000891 0.0000
 23   -737.1685780102  -0.000000177332 0.00033490  0.00000345  0.0000407 0.0000
 24   -737.1685780442  -0.000000034044 0.00011459  0.00000103  0.0000243 0.0000
                 **** Energy Check signals convergence ****

               *****************************************************
               *                     SUCCESS                       *
               *           SCF CONVERGED AFTER  25 CYCLES          *
               *****************************************************

Old exchange energy                            =    -37.371299277 Eh
New exchange energy                            =    -37.371306948 Eh
Exchange energy change after final integration =     -0.000007671 Eh
Total energy after final integration           =   -737.168585719 Eh
Final COS-X integration done in                =    18.904 sec

----------------
TOTAL SCF ENERGY
----------------

Total Energy       :         -737.16858572 Eh          -20059.37702 eV

Components:
Nuclear Repulsion  :          939.20968584 Eh           25557.19485 eV
Electronic Energy  :        -1676.37827156 Eh          -45616.57187 eV
One Electron Energy:        -2925.13621966 Eh          -79597.00317 eV
Two Electron Energy:         1248.75794811 Eh           33980.43130 eV
Max COSX asymmetry :            0.00004433 Eh               0.00121 eV

Virial components:
Potential Energy   :        -1389.94535782 Eh          -37822.33604 eV
Kinetic Energy     :          652.77677210 Eh           17762.95902 eV
Virial Ratio       :            2.12928128


DFT components:
N(Alpha)           :       52.999951036776 electrons
N(Beta)            :       52.999951036776 electrons
N(Total)           :      105.999902073552 electrons
E(X)               :      -49.941470090240 Eh       
E(C)               :       -4.843419599788 Eh       
E(XC)              :      -54.784889690028 Eh       
DFET-embed. en.    :        0.000000000000 Eh       

---------------
SCF CONVERGENCE
---------------

  Last Energy change         ...   -3.5695e-09  Tolerance :   1.0000e-08
  Last MAX-Density change    ...    0.0000e+00  Tolerance :   1.0000e-07
  Last RMS-Density change    ...    0.0000e+00  Tolerance :   5.0000e-09
  Last DIIS Error            ...    7.4883e-06  Tolerance :   5.0000e-07

             **** THE GBW FILE WAS UPDATED (2_6_orca.gbw) ****
             **** DENSITY 2_6_orca.scfp WAS UPDATED ****
             **** ENERGY FILE WAS UPDATED (2_6_orca.en.tmp) ****
             **** THE GBW FILE WAS UPDATED (2_6_orca.gbw) ****
             **** DENSITY 2_6_orca.scfp WAS UPDATED ****
----------------
ORBITAL ENERGIES
----------------

  NO   OCC          E(Eh)            E(eV) 
   0   2.0000     -19.542092      -531.7673 
   1   2.0000     -19.532627      -531.5098 
   2   2.0000     -19.531818      -531.4878 
   3   2.0000     -19.530349      -531.4478 
   4   2.0000     -10.597045      -288.3603 
   5   2.0000     -10.594300      -288.2856 
   6   2.0000     -10.454738      -284.4879 
   7   2.0000     -10.454270      -284.4752 
   8   2.0000     -10.453611      -284.4572 
   9   2.0000     -10.452003      -284.4134 
  10   2.0000     -10.451739      -284.4063 
  11   2.0000     -10.448894      -284.3289 
  12   2.0000      -3.695861      -100.5695 
  13   2.0000      -2.349470       -63.9323 
  14   2.0000      -2.336794       -63.5874 
  15   2.0000      -2.302899       -62.6651 
  16   2.0000      -1.242471       -33.8093 
  17   2.0000      -1.233921       -33.5767 
  18   2.0000      -1.121739       -30.5241 
  19   2.0000      -1.116607       -30.3844 
  20   2.0000      -0.956184       -26.0191 
  21   2.0000      -0.848262       -23.0824 
  22   2.0000      -0.827637       -22.5212 
  23   2.0000      -0.707622       -19.2554 
  24   2.0000      -0.693904       -18.8821 
  25   2.0000      -0.683299       -18.5935 
  26   2.0000      -0.678316       -18.4579 
  27   2.0000      -0.602060       -16.3829 
  28   2.0000      -0.593674       -16.1547 
  29   2.0000      -0.585320       -15.9274 
  30   2.0000      -0.577187       -15.7061 
  31   2.0000      -0.555056       -15.1038 
  32   2.0000      -0.543697       -14.7947 
  33   2.0000      -0.529920       -14.4199 
  34   2.0000      -0.527264       -14.3476 
  35   2.0000      -0.512218       -13.9381 
  36   2.0000      -0.494526       -13.4567 
  37   2.0000      -0.466928       -12.7057 
  38   2.0000      -0.454747       -12.3743 
  39   2.0000      -0.431339       -11.7373 
  40   2.0000      -0.424472       -11.5505 
  41   2.0000      -0.415501       -11.3064 
  42   2.0000      -0.400337       -10.8937 
  43   2.0000      -0.395566       -10.7639 
  44   2.0000      -0.394097       -10.7239 
  45   2.0000      -0.391742       -10.6599 
  46   2.0000      -0.379645       -10.3307 
  47   2.0000      -0.374996       -10.2042 
  48   2.0000      -0.355199        -9.6655 
  49   2.0000      -0.339110        -9.2277 
  50   2.0000      -0.330446        -8.9919 
  51   2.0000      -0.298496        -8.1225 
  52   2.0000      -0.286782        -7.8037 
  53   0.0000      -0.091637        -2.4936 
  54   0.0000       0.009144         0.2488 
  55   0.0000       0.014160         0.3853 
  56   0.0000       0.016984         0.4622 
  57   0.0000       0.027357         0.7444 
  58   0.0000       0.052768         1.4359 
  59   0.0000       0.079851         2.1728 
  60   0.0000       0.088148         2.3986 
  61   0.0000       0.096018         2.6128 
  62   0.0000       0.138930         3.7805 
  63   0.0000       0.167705         4.5635 
  64   0.0000       0.177883         4.8404 
  65   0.0000       0.187539         5.1032 
  66   0.0000       0.197175         5.3654 
  67   0.0000       0.198679         5.4063 
  68   0.0000       0.219999         5.9865 
  69   0.0000       0.224639         6.1127 
  70   0.0000       0.234744         6.3877 
  71   0.0000       0.248104         6.7513 
  72   0.0000       0.293753         7.9934 
  73   0.0000       0.301904         8.2152 
  74   0.0000       0.313358         8.5269 
  75   0.0000       0.324624         8.8335 
  76   0.0000       0.331797         9.0287 
  77   0.0000       0.339408         9.2358 
  78   0.0000       0.350499         9.5376 
  79   0.0000       0.407431        11.0868 
  80   0.0000       0.420819        11.4511 
  81   0.0000       0.431083        11.7304 
  82   0.0000       0.447362        12.1733 
  83   0.0000       0.457330        12.4446 
  84   0.0000       0.469474        12.7750 
  85   0.0000       0.485164        13.2020 
  86   0.0000       0.518711        14.1148 
  87   0.0000       0.539597        14.6832 
  88   0.0000       0.555963        15.1285 
  89   0.0000       0.563694        15.3389 
  90   0.0000       0.576846        15.6968 
  91   0.0000       0.579337        15.7646 
  92   0.0000       0.596031        16.2188 
  93   0.0000       0.610943        16.6246 
  94   0.0000       0.615445        16.7471 
  95   0.0000       0.619485        16.8570 
  96   0.0000       0.624755        17.0005 
  97   0.0000       0.629613        17.1326 
  98   0.0000       0.641443        17.4545 
  99   0.0000       0.649569        17.6757 
 100   0.0000       0.657306        17.8862 
 101   0.0000       0.682772        18.5792 
 102   0.0000       0.704050        19.1582 
 103   0.0000       0.716584        19.4992 
 104   0.0000       0.745972        20.2989 
 105   0.0000       0.751681        20.4543 
 106   0.0000       0.769383        20.9360 
 107   0.0000       0.777341        21.1525 
 108   0.0000       0.810130        22.0448 
 109   0.0000       0.827465        22.5165 
 110   0.0000       0.866485        23.5783 
 111   0.0000       0.902241        24.5512 
 112   0.0000       0.926248        25.2045 
 113   0.0000       0.927254        25.2319 
 114   0.0000       0.936740        25.4900 
 115   0.0000       0.953646        25.9500 
 116   0.0000       0.958957        26.0946 
 117   0.0000       0.961401        26.1610 
 118   0.0000       0.981120        26.6976 
 119   0.0000       1.020011        27.7559 
 120   0.0000       1.029146        28.0045 
 121   0.0000       1.041391        28.3377 
 122   0.0000       1.044917        28.4336 
 123   0.0000       1.065243        28.9867 
 124   0.0000       1.071647        29.1610 
 125   0.0000       1.083044        29.4711 
 126   0.0000       1.088369        29.6160 
 127   0.0000       1.109769        30.1983 
 128   0.0000       1.115057        30.3422 
 129   0.0000       1.121461        30.5165 
 130   0.0000       1.149495        31.2793 
 131   0.0000       1.160752        31.5857 
 132   0.0000       1.186369        32.2827 
 133   0.0000       1.197002        32.5721 
 134   0.0000       1.206173        32.8216 
 135   0.0000       1.231621        33.5141 
 136   0.0000       1.286266        35.0011 
 137   0.0000       1.308361        35.6023 
 138   0.0000       1.315699        35.8020 
 139   0.0000       1.399390        38.0793 
 140   0.0000       1.419224        38.6190 
 141   0.0000       1.434935        39.0466 
 142   0.0000       1.448945        39.4278 
 143   0.0000       1.467409        39.9302 
 144   0.0000       1.498854        40.7859 
 145   0.0000       1.511881        41.1404 
 146   0.0000       1.541448        41.9449 
 147   0.0000       1.545874        42.0654 
 148   0.0000       1.554010        42.2868 
 149   0.0000       1.571036        42.7501 
 150   0.0000       1.585261        43.1371 
 151   0.0000       1.595943        43.4278 
 152   0.0000       1.773925        48.2710 
 153   0.0000       1.777397        48.3654 
 154   0.0000       1.810904        49.2772 
 155   0.0000       1.816893        49.4402 
 156   0.0000       1.818618        49.4871 
 157   0.0000       1.824363        49.6434 
 158   0.0000       1.826508        49.7018 
 159   0.0000       1.846340        50.2415 
 160   0.0000       1.892110        51.4869 
 161   0.0000       1.904233        51.8168 
 162   0.0000       1.907911        51.9169 
 163   0.0000       1.985743        54.0348 
 164   0.0000       2.001780        54.4712 
 165   0.0000       2.012376        54.7595 
 166   0.0000       2.029013        55.2122 
 167   0.0000       2.044342        55.6294 
 168   0.0000       2.053702        55.8841 
 169   0.0000       2.058356        56.0107 
 170   0.0000       2.064476        56.1772 
 171   0.0000       2.091389        56.9096 
 172   0.0000       2.120065        57.6899 
 173   0.0000       2.167121        58.9704 
 174   0.0000       2.182883        59.3993 
 175   0.0000       2.203981        59.9734 
 176   0.0000       2.209641        60.1274 
 177   0.0000       2.212432        60.2033 
 178   0.0000       2.232328        60.7447 
 179   0.0000       2.266039        61.6621 
 180   0.0000       2.306082        62.7517 
 181   0.0000       2.346402        63.8489 
 182   0.0000       2.373249        64.5794 
 183   0.0000       2.390871        65.0589 
 184   0.0000       2.416943        65.7684 
 185   0.0000       2.420159        65.8559 
 186   0.0000       2.423855        65.9565 
 187   0.0000       2.438861        66.3648 
 188   0.0000       2.461756        66.9878 
 189   0.0000       2.482384        67.5491 
 190   0.0000       2.524831        68.7042 
 191   0.0000       2.527127        68.7666 
 192   0.0000       2.565166        69.8017 
 193   0.0000       2.582244        70.2664 
 194   0.0000       2.590778        70.4987 
 195   0.0000       2.650341        72.1194 
 196   0.0000       2.671042        72.6828 
 197   0.0000       2.677365        72.8548 
 198   0.0000       2.708694        73.7073 
 199   0.0000       2.730433        74.2989 
 200   0.0000       2.752696        74.9047 
 201   0.0000       2.773282        75.4648 
 202   0.0000       2.790675        75.9381 
 203   0.0000       2.824283        76.8527 
 204   0.0000       2.861553        77.8668 
 205   0.0000       2.887105        78.5621 
 206   0.0000       2.927580        79.6635 
 207   0.0000       2.953731        80.3751 
 208   0.0000       2.968717        80.7829 
 209   0.0000       2.989140        81.3386 
 210   0.0000       3.060229        83.2731 
 211   0.0000       3.104832        84.4868 
 212   0.0000       3.134255        85.2874 
 213   0.0000       3.436879        93.5222 
 214   0.0000      13.293495       361.7344 
 215   0.0000      13.660267       371.7148 
 216   0.0000      13.669166       371.9569 
 217   0.0000      13.838828       376.5737 
 218   0.0000      13.908030       378.4567 
 219   0.0000      14.091064       383.4373 
 220   0.0000      14.136246       384.6668 
 221   0.0000      14.535721       395.5371 
 222   0.0000      25.505734       694.0463 
 223   0.0000      25.648770       697.9385 
 224   0.0000      25.675455       698.6646 
 225   0.0000      25.771765       701.2854 
 226   0.0000      51.662048      1405.7958 

                    ********************************
                    * MULLIKEN POPULATION ANALYSIS *
                    ********************************

-----------------------
MULLIKEN ATOMIC CHARGES
-----------------------
   0 C :   -0.240749
   1 C :   -0.221101
   2 C :   -0.221455
   3 C :   -0.219346
   4 C :   -0.220230
   5 C :   -0.234799
   6 H :    0.220679
   7 H :    0.222050
   8 H :    0.225958
   9 H :    0.231027
  10 H :    0.219440
  11 Pd:    0.546473
  12 O :   -0.446746
  13 O :   -0.461459
  14 O :   -0.451032
  15 C :    0.424613
  16 O :   -0.460882
  17 H :    0.240501
  18 C :    0.428404
  19 H :    0.209136
  20 H :    0.209519
Sum of atomic charges:    0.0000000

--------------------------------
MULLIKEN REDUCED ORBITAL CHARGES
--------------------------------
  0 C s       :     3.254623  s :     3.254623
      pz      :     0.895716  p :     2.946440
      px      :     1.008902
      py      :     1.041823
      dz2     :     0.011219  d :     0.039686
      dxz     :     0.007622
      dyz     :     0.010847
      dx2y2   :     0.003668
      dxy     :     0.006330
  1 C s       :     3.250843  s :     3.250843
      pz      :     1.013050  p :     2.931445
      px      :     0.991911
      py      :     0.926484
      dz2     :     0.009835  d :     0.038814
      dxz     :     0.006830
      dyz     :     0.009523
      dx2y2   :     0.006301
      dxy     :     0.006324
  2 C s       :     3.249305  s :     3.249305
      pz      :     0.994677  p :     2.932387
      px      :     0.962252
      py      :     0.975459
      dz2     :     0.008858  d :     0.039763
      dxz     :     0.005591
      dyz     :     0.012978
      dx2y2   :     0.006695
      dxy     :     0.005641
  3 C s       :     3.252879  s :     3.252879
      pz      :     0.905993  p :     2.927607
      px      :     0.996785
      py      :     1.024829
      dz2     :     0.011383  d :     0.038859
      dxz     :     0.007529
      dyz     :     0.009155
      dx2y2   :     0.004499
      dxy     :     0.006293
  4 C s       :     3.245136  s :     3.245136
      pz      :     0.985378  p :     2.933373
      px      :     0.968284
      py      :     0.979712
      dz2     :     0.010286  d :     0.041720
      dxz     :     0.006982
      dyz     :     0.012487
      dx2y2   :     0.006330
      dxy     :     0.005635
  5 C s       :     3.253181  s :     3.253181
      pz      :     1.032966  p :     2.941935
      px      :     0.983089
      py      :     0.925881
      dz2     :     0.007733  d :     0.039682
      dxz     :     0.008190
      dyz     :     0.010430
      dx2y2   :     0.006752
      dxy     :     0.006576
  6 H s       :     0.779321  s :     0.779321
  7 H s       :     0.777950  s :     0.777950
  8 H s       :     0.774042  s :     0.774042
  9 H s       :     0.768973  s :     0.768973
 10 H s       :     0.780560  s :     0.780560
 11 Pds       :     2.524158  s :     2.524158
      pz      :     2.125444  p :     6.310429
      px      :     2.076481
      py      :     2.108504
      dz2     :     1.368518  d :     8.613867
      dxz     :     1.789173
      dyz     :     1.896084
      dx2y2   :     1.888528
      dxy     :     1.671565
      f0      :     0.000430  f :     0.005074
      f+1     :     0.001041
      f-1     :     0.001140
      f+2     :     0.000253
      f-2     :     0.000481
      f+3     :     0.001224
      f-3     :     0.000505
 12 O s       :     3.817193  s :     3.817193
      pz      :     1.618785  p :     4.599139
      px      :     1.549008
      py      :     1.431346
      dz2     :     0.005672  d :     0.030414
      dxz     :     0.005495
      dyz     :     0.007453
      dx2y2   :     0.006797
      dxy     :     0.004996
 13 O s       :     3.817941  s :     3.817941
      pz      :     1.395173  p :     4.612818
      px      :     1.579068
      py      :     1.638577
      dz2     :     0.010998  d :     0.030700
      dxz     :     0.007007
      dyz     :     0.006785
      dx2y2   :     0.002591
      dxy     :     0.003319
 14 O s       :     3.813784  s :     3.813784
      pz      :     1.385110  p :     4.604788
      px      :     1.604121
      py      :     1.615557
      dz2     :     0.011862  d :     0.032460
      dxz     :     0.008507
      dyz     :     0.007636
      dx2y2   :     0.002152
      dxy     :     0.002303
 15 C s       :     3.060890  s :     3.060890
      pz      :     0.792066  p :     2.378604
      px      :     0.773351
      py      :     0.813186
      dz2     :     0.040303  d :     0.135894
      dxz     :     0.032131
      dyz     :     0.038858
      dx2y2   :     0.010151
      dxy     :     0.014451
 16 O s       :     3.824252  s :     3.824252
      pz      :     1.609967  p :     4.607096
      px      :     1.548280
      py      :     1.448848
      dz2     :     0.005642  d :     0.029534
      dxz     :     0.006265
      dyz     :     0.008065
      dx2y2   :     0.005464
      dxy     :     0.004097
 17 H s       :     0.759499  s :     0.759499
 18 C s       :     3.060813  s :     3.060813
      pz      :     0.791681  p :     2.374962
      px      :     0.784417
      py      :     0.798864
      dz2     :     0.034557  d :     0.135822
      dxz     :     0.028701
      dyz     :     0.037528
      dx2y2   :     0.015006
      dxy     :     0.020030
 19 H s       :     0.790864  s :     0.790864
 20 H s       :     0.790481  s :     0.790481


                     *******************************
                     * LOEWDIN POPULATION ANALYSIS *
                     *******************************

----------------------
LOEWDIN ATOMIC CHARGES
----------------------
   0 C :   -0.122887
   1 C :   -0.127368
   2 C :   -0.135958
   3 C :   -0.124913
   4 C :   -0.126365
   5 C :   -0.114469
   6 H :    0.141749
   7 H :    0.138339
   8 H :    0.138555
   9 H :    0.146555
  10 H :    0.137881
  11 Pd:   -0.121515
  12 O :   -0.141413
  13 O :   -0.144146
  14 O :   -0.119677
  15 C :    0.168182
  16 O :   -0.164287
  17 H :    0.150141
  18 C :    0.170650
  19 H :    0.125759
  20 H :    0.125189

-------------------------------
LOEWDIN REDUCED ORBITAL CHARGES
-------------------------------
  0 C s       :     2.888726  s :     2.888726
      pz      :     1.081015  p :     3.144953
      px      :     1.006866
      py      :     1.057071
      dz2     :     0.028138  d :     0.089208
      dxz     :     0.017127
      dyz     :     0.026808
      dx2y2   :     0.006231
      dxy     :     0.010905
  1 C s       :     2.901110  s :     2.901110
      pz      :     1.066823  p :     3.139481
      px      :     1.007800
      py      :     1.064858
      dz2     :     0.021354  d :     0.086777
      dxz     :     0.013161
      dyz     :     0.023798
      dx2y2   :     0.014061
      dxy     :     0.014403
  2 C s       :     2.897469  s :     2.897469
      pz      :     1.074803  p :     3.148493
      px      :     1.007486
      py      :     1.066203
      dz2     :     0.021075  d :     0.089996
      dxz     :     0.013055
      dyz     :     0.028474
      dx2y2   :     0.014029
      dxy     :     0.013363
  3 C s       :     2.900738  s :     2.900738
      pz      :     1.077449  p :     3.137285
      px      :     1.007180
      py      :     1.052657
      dz2     :     0.027922  d :     0.086890
      dxz     :     0.017315
      dyz     :     0.022916
      dx2y2   :     0.007796
      dxy     :     0.010941
  4 C s       :     2.871343  s :     2.871343
      pz      :     1.087046  p :     3.159545
      px      :     1.011339
      py      :     1.061160
      dz2     :     0.024428  d :     0.095477
      dxz     :     0.016134
      dyz     :     0.028273
      dx2y2   :     0.013118
      dxy     :     0.013524
  5 C s       :     2.888443  s :     2.888443
      pz      :     1.070342  p :     3.136697
      px      :     1.011036
      py      :     1.055319
      dz2     :     0.017683  d :     0.089329
      dxz     :     0.015962
      dyz     :     0.026011
      dx2y2   :     0.014898
      dxy     :     0.014776
  6 H s       :     0.858251  s :     0.858251
  7 H s       :     0.861661  s :     0.861661
  8 H s       :     0.861445  s :     0.861445
  9 H s       :     0.853445  s :     0.853445
 10 H s       :     0.862119  s :     0.862119
 11 Pds       :     2.495191  s :     2.495191
      pz      :     2.217098  p :     6.624598
      px      :     2.178397
      py      :     2.229103
      dz2     :     1.481872  d :     8.994881
      dxz     :     1.856636
      dyz     :     1.945098
      dx2y2   :     1.943271
      dxy     :     1.768004
      f0      :     0.000529  f :     0.006844
      f+1     :     0.001511
      f-1     :     0.001636
      f+2     :     0.000312
      f-2     :     0.000539
      f+3     :     0.001731
      f-3     :     0.000586
 12 O s       :     3.475756  s :     3.475756
      pz      :     1.602794  p :     4.607755
      px      :     1.534007
      py      :     1.470954
      dz2     :     0.009998  d :     0.057903
      dxz     :     0.008731
      dyz     :     0.015796
      dx2y2   :     0.011682
      dxy     :     0.011696
 13 O s       :     3.466352  s :     3.466352
      pz      :     1.460464  p :     4.618587
      px      :     1.555372
      py      :     1.602750
      dz2     :     0.022022  d :     0.059208
      dxz     :     0.014035
      dyz     :     0.012824
      dx2y2   :     0.004839
      dxy     :     0.005488
 14 O s       :     3.452237  s :     3.452237
      pz      :     1.461042  p :     4.604346
      px      :     1.565655
      py      :     1.577649
      dz2     :     0.026572  d :     0.063094
      dxz     :     0.013849
      dyz     :     0.014082
      dx2y2   :     0.004331
      dxy     :     0.004259
 15 C s       :     2.855193  s :     2.855193
      pz      :     0.949201  p :     2.679815
      px      :     0.819896
      py      :     0.910718
      dz2     :     0.093256  d :     0.296810
      dxz     :     0.069107
      dyz     :     0.087151
      dx2y2   :     0.018425
      dxy     :     0.028872
 16 O s       :     3.486927  s :     3.486927
      pz      :     1.609018  p :     4.621696
      px      :     1.535242
      py      :     1.477437
      dz2     :     0.010203  d :     0.055664
      dxz     :     0.010169
      dyz     :     0.016635
      dx2y2   :     0.008695
      dxy     :     0.009961
 17 H s       :     0.849859  s :     0.849859
 18 C s       :     2.857924  s :     2.857924
      pz      :     0.925909  p :     2.675088
      px      :     0.850699
      py      :     0.898480
      dz2     :     0.077860  d :     0.296338
      dxz     :     0.060918
      dyz     :     0.085638
      dx2y2   :     0.030063
      dxy     :     0.041858
 19 H s       :     0.874241  s :     0.874241
 20 H s       :     0.874811  s :     0.874811


                      *****************************
                      * MAYER POPULATION ANALYSIS *
                      *****************************

  NA   - Mulliken gross atomic population
  ZA   - Total nuclear charge
  QA   - Mulliken gross atomic charge
  VA   - Mayer's total valence
  BVA  - Mayer's bonded valence
  FA   - Mayer's free valence

  ATOM       NA         ZA         QA         VA         BVA        FA
  0 C      6.2407     6.0000    -0.2407     3.8151     3.8151     0.0000
  1 C      6.2211     6.0000    -0.2211     3.8210     3.8210    -0.0000
  2 C      6.2215     6.0000    -0.2215     3.8112     3.8112    -0.0000
  3 C      6.2193     6.0000    -0.2193     3.8184     3.8184     0.0000
  4 C      6.2202     6.0000    -0.2202     3.7933     3.7933     0.0000
  5 C      6.2348     6.0000    -0.2348     3.8289     3.8289    -0.0000
  6 H      0.7793     1.0000     0.2207     0.9140     0.9140    -0.0000
  7 H      0.7779     1.0000     0.2221     0.9140     0.9140     0.0000
  8 H      0.7740     1.0000     0.2260     0.9110     0.9110    -0.0000
  9 H      0.7690     1.0000     0.2310     0.9100     0.9100    -0.0000
 10 H      0.7806     1.0000     0.2194     0.9151     0.9151     0.0000
 11 Pd    17.4535    18.0000     0.5465     2.3524     2.3524     0.0000
 12 O      8.4467     8.0000    -0.4467     2.2031     2.2031     0.0000
 13 O      8.4615     8.0000    -0.4615     2.1895     2.1895     0.0000
 14 O      8.4510     8.0000    -0.4510     2.2044     2.2044    -0.0000
 15 C      5.5754     6.0000     0.4246     3.8372     3.8372     0.0000
 16 O      8.4609     8.0000    -0.4609     2.1831     2.1831     0.0000
 17 H      0.7595     1.0000     0.2405     0.9052     0.9052    -0.0000
 18 C      5.5716     6.0000     0.4284     3.8358     3.8358     0.0000
 19 H      0.7909     1.0000     0.2091     0.9125     0.9125     0.0000
 20 H      0.7905     1.0000     0.2095     0.9102     0.9102     0.0000

  Mayer bond orders larger than 0.100000
B(  0-C ,  1-C ) :   1.4244 B(  0-C ,  4-C ) :   1.4032 B(  0-C ,  6-H ) :   0.9199 
B(  1-C ,  2-C ) :   1.4249 B(  1-C ,  7-H ) :   0.9189 B(  2-C ,  3-C ) :   1.4269 
B(  2-C ,  8-H ) :   0.9158 B(  3-C ,  5-C ) :   1.4205 B(  3-C , 10-H ) :   0.9203 
B(  4-C ,  5-C ) :   1.4244 B(  4-C , 17-H ) :   0.9127 B(  5-C ,  9-H ) :   0.9163 
B( 11-Pd, 12-O ) :   0.5601 B( 11-Pd, 13-O ) :   0.5780 B( 11-Pd, 14-O ) :   0.5985 
B( 11-Pd, 16-O ) :   0.5232 B( 12-O , 13-O ) :   0.1114 B( 12-O , 18-C ) :   1.4820 
B( 13-O , 18-C ) :   1.4395 B( 14-O , 15-C ) :   1.4344 B( 14-O , 16-O ) :   0.1106 
B( 15-C , 16-O ) :   1.4896 B( 15-C , 20-H ) :   0.8886 B( 18-C , 19-H ) :   0.8865 



------------------
HIRSHFELD ANALYSIS
------------------

Total integrated alpha density =     52.999951036
Total integrated beta density  =     52.999951036

  ATOM     CHARGE      SPIN    
   0 C   -0.047088    0.000000
   1 C   -0.045886    0.000000
   2 C   -0.046785    0.000000
   3 C   -0.042341    0.000000
   4 C   -0.046957    0.000000
   5 C   -0.040698    0.000000
   6 H    0.039268    0.000000
   7 H    0.044098    0.000000
   8 H    0.048710    0.000000
   9 H    0.044315    0.000000
  10 H    0.044189    0.000000
  11 Pd   0.635046    0.000000
  12 O   -0.297153    0.000000
  13 O   -0.301800    0.000000
  14 O   -0.284262    0.000000
  15 C    0.200760    0.000000
  16 O   -0.304234    0.000000
  17 H    0.046327    0.000000
  18 C    0.200359    0.000000
  19 H    0.077652    0.000000
  20 H    0.076578    0.000000

  TOTAL   0.000098    0.000000

-------
TIMINGS
-------

Total SCF time: 0 days 0 hours 3 min 10 sec 

Total time                  ....     190.986 sec
Sum of individual times     ....     190.724 sec  ( 99.9%)

Fock matrix formation       ....     187.330 sec  ( 98.1%)
  Split-RI-J                ....      18.317 sec  (  9.8% of F)
  Chain of spheres X        ....     149.551 sec  ( 79.8% of F)
  XC integration            ....      19.328 sec  ( 10.3% of F)
    Basis function eval.    ....       7.529 sec  ( 39.0% of XC)
    Density eval.           ....       4.671 sec  ( 24.2% of XC)
    XC-Functional eval.     ....       1.682 sec  (  8.7% of XC)
    XC-Potential eval.      ....       4.859 sec  ( 25.1% of XC)
Diagonalization             ....       0.233 sec  (  0.1%)
Density matrix formation    ....       0.025 sec  (  0.0%)
Population analysis         ....       0.541 sec  (  0.3%)
Initial guess               ....       0.026 sec  (  0.0%)
Orbital Transformation      ....       0.000 sec  (  0.0%)
Orbital Orthonormalization  ....       0.000 sec  (  0.0%)
DIIS solution               ....       0.081 sec  (  0.0%)
Grid generation             ....       2.487 sec  (  1.3%)

Maximum memory used throughout the entire SCF-calculation: 112.5 MB


-------------------------------------------------------------------------------
                          DFT DISPERSION CORRECTION                            
                                                                               
                              DFTD3 V3.1  Rev 1                                
                          USING Becke-Johnson damping                          
-------------------------------------------------------------------------------
The PBEh-3c composite method is recognized
Using three-body term ABC
Active option DFTDOPT                   ...         4   

molecular C6(AA) [au] = 6749.331530 


            DFT-D V3
 parameters
 s6 scaling factor         :     1.0000 
 a1 scaling factor         :     0.4860 
 s8 scaling factor         :     0.0000 
 a2 scaling factor         :     4.5000 
 Damping factor alpha9(ATM):    16.0000 
 ad hoc parameters k1-k3   :    16.0000     1.3333    -4.0000 

 Edisp/kcal,au: -8.315118986284  -0.013250984157 
 E6   /kcal   :  -8.420008865 
 E8   /kcal   :  -0.000000000 
 E6(ABC)      :   0.104889879 
 % E8         :   0.000000000 
 % E6(ABC)    :  -1.261435692 

-------------------------   ----------------
Dispersion correction           -0.013250984
-------------------------   ----------------

 ** NOTE ** -> element pd will be treated as ni
------------------   -----------------
gCP correction             0.047031744
------------------   -----------------

-------------------------   --------------------
FINAL SINGLE POINT ENERGY      -737.134804959036
-------------------------   --------------------

------------------------------------------------------------------------------
                         ORCA SCF GRADIENT CALCULATION
------------------------------------------------------------------------------

 ... reading COSX grid (gridx3)
Gradient of the Kohn-Sham DFT energy:
Kohn-Sham wavefunction type      ... RKS
Hartree-Fock exchange scaling    ...    0.420
Number of operators              ...    1
Number of atoms                  ...   21
Basis set dimensions             ...  227
Integral neglect threshold       ... 2.5e-11
Integral primitive cutoff        ... 2.5e-12
SHARK Integral package           ... ON

Nuc. rep. gradient       (SHARK) ... done (  0.0 sec)
HCore & Overlap gradient (SHARK) ... done (  0.4 sec)
ECP gradient             (SHARK) ... done (  1.1 sec)
RI-J gradient            (SHARK) ... done (  2.8 sec)
COSX-gradient                    ... done ( 23.8 sec)
Exchange-correlation gradient    ... done
Dispersion correction            ... done
gCP correction                   ... done

------------------
CARTESIAN GRADIENT
------------------

   1   C   :    0.017472017   -0.001820388    0.049687643
   2   C   :    0.004896018   -0.002407436    0.000053100
   3   C   :    0.002252190   -0.009454651   -0.011052237
   4   C   :    0.000196046    0.004428218   -0.004583650
   5   C   :   -0.005546465    0.023092340    0.032086490
   6   C   :   -0.024711061    0.046694114    0.008543243
   7   H   :   -0.001897155    0.002270594   -0.012463739
   8   H   :   -0.005594751   -0.004081619   -0.017724049
   9   H   :   -0.002089013   -0.007411149   -0.007068894
  10   H   :    0.009099965   -0.008503685   -0.002501309
  11   H   :    0.004459933   -0.017826920   -0.006236911
  12   Pd  :   -0.009256663    0.000264124    0.009528858
  13   O   :    0.005515457   -0.003744758   -0.002862505
  14   O   :   -0.006155289   -0.002527358   -0.005203872
  15   O   :   -0.002659807   -0.004311033    0.012977728
  16   C   :   -0.005963135    0.011307280   -0.019724170
  17   O   :    0.007140365   -0.006246186    0.011006068
  18   H   :    0.003194945   -0.023101936   -0.028497016
  19   C   :    0.007026154    0.007873977    0.000373302
  20   H   :    0.004735294   -0.006980453   -0.005864886
  21   H   :   -0.001717306    0.001514802   -0.000746486

Difference to translation invariance:
           :    0.0003977410   -0.0009721215   -0.0002732910

Difference to rotation invariance:
           :   -0.0012063271    0.0005338695    0.0011320045

Norm of the cartesian gradient     ...    0.1073894867
RMS gradient                       ...    0.0135298036
MAX gradient                       ...    0.0496876433

-------
TIMINGS
-------

Total SCF gradient time            ...       33.257 sec

One electron gradient       ....       1.540 sec  (  4.6%)
RI-J Coulomb gradient       ....       2.833 sec  (  8.5%)
COSX gradient               ....      23.803 sec  ( 71.6%)
XC gradient                 ....       4.210 sec  ( 12.7%)

Maximum memory used throughout the entire SCFGRAD-calculation: 84.2 MB

                            ***************************************
                            *     ORCA property calculations      *
                            ***************************************

                                    ---------------------
                                    Active property flags
                                    ---------------------
   (+) Dipole Moment


------------------------------------------------------------------------------
                       ORCA ELECTRIC PROPERTIES CALCULATION
------------------------------------------------------------------------------

Dipole Moment Calculation                       ... on
Quadrupole Moment Calculation                   ... off
Polarizability Calculation                      ... off
GBWName                                         ... 2_6_orca.gbw
Electron density                                ... 2_6_orca.scfp
The origin for moment calculation is the CENTER OF MASS  = ( 1.390809,  1.220646  0.099189)

-------------
DIPOLE MOMENT
-------------
                                X             Y             Z
Electronic contribution:     55.74524      48.36729       3.67772
Nuclear contribution   :    -55.89853     -48.50856      -3.76210
                        -----------------------------------------
Total Dipole Moment    :     -0.15329      -0.14127      -0.08438
                        -----------------------------------------
Magnitude (a.u.)       :      0.22489
Magnitude (Debye)      :      0.57162



--------------------
Rotational spectrum 
--------------------
 
Rotational constants in cm-1:     0.028303     0.019564     0.014654 
Rotational constants in MHz :   848.498282   586.517747   439.328017 

 Dipole components along the rotational axes: 
x,y,z [a.u.] :    -0.214215    -0.019070    -0.065752 
x,y,z [Debye]:    -0.544490    -0.048471    -0.167129 

 

Timings for individual modules:

Sum of individual times         ...      224.852 sec (=   3.748 min)
GTO integral calculation        ...        0.559 sec (=   0.009 min)   0.2 %
SCF iterations                  ...      191.008 sec (=   3.183 min)  84.9 %
SCF Gradient evaluation         ...       33.285 sec (=   0.555 min)  14.8 %
                             ****ORCA TERMINATED NORMALLY****
TOTAL RUN TIME: 0 days 0 hours 3 minutes 45 seconds 174 msec
