
                                 *****************
                                 * O   R   C   A *
                                 *****************

                                            #,                                       
                                            ###                                      
                                            ####                                     
                                            #####                                    
                                            ######                                   
                                           ########,                                 
                                     ,,################,,,,,                         
                               ,,#################################,,                 
                          ,,##########################################,,             
                       ,#########################################, ''#####,          
                    ,#############################################,,   '####,        
                  ,##################################################,,,,####,       
                ,###########''''           ''''###############################       
              ,#####''   ,,,,##########,,,,          '''####'''          '####       
            ,##' ,,,,###########################,,,                        '##       
           ' ,,###''''                  '''############,,,                           
         ,,##''                                '''############,,,,        ,,,,,,###''
      ,#''                                            '''#######################'''  
     '                                                          ''''####''''         
             ,#######,   #######,   ,#######,      ##                                
            ,#'     '#,  ##    ##  ,#'     '#,    #''#        ######   ,####,        
            ##       ##  ##   ,#'  ##            #'  '#       #        #'  '#        
            ##       ##  #######   ##           ,######,      #####,   #    #        
            '#,     ,#'  ##    ##  '#,     ,#' ,#      #,         ##   #,  ,#        
             '#######'   ##     ##  '#######'  #'      '#     #####' # '####'        



                  #######################################################
                  #                        -***-                        #
                  #          Department of theory and spectroscopy      #
                  #    Directorship and core code : Frank Neese         #
                  #        Max Planck Institute fuer Kohlenforschung    #
                  #                Kaiser Wilhelm Platz 1               #
                  #                 D-45470 Muelheim/Ruhr               #
                  #                      Germany                        #
                  #                                                     #
                  #                  All rights reserved                #
                  #                        -***-                        #
                  #######################################################


                         Program Version 5.0.3 -  RELEASE  -


 With contributions from (in alphabetic order):
   Daniel Aravena         : Magnetic Suceptibility
   Michael Atanasov       : Ab Initio Ligand Field Theory (pilot matlab implementation)
   Alexander A. Auer      : GIAO ZORA, VPT2 properties, NMR spectrum
   Ute Becker             : Parallelization
   Giovanni Bistoni       : ED, misc. LED, open-shell LED, HFLD
   Martin Brehm           : Molecular dynamics
   Dmytro Bykov           : SCF Hessian
   Vijay G. Chilkuri      : MRCI spin determinant printing, contributions to CSF-ICE
   Dipayan Datta          : RHF DLPNO-CCSD density
   Achintya Kumar Dutta   : EOM-CC, STEOM-CC
   Dmitry Ganyushin       : Spin-Orbit,Spin-Spin,Magnetic field MRCI
   Miquel Garcia          : C-PCM and meta-GGA Hessian, CC/C-PCM, Gaussian charge scheme
   Yang Guo               : DLPNO-NEVPT2, F12-NEVPT2, CIM, IAO-localization
   Andreas Hansen         : Spin unrestricted coupled pair/coupled cluster methods
   Benjamin Helmich-Paris : MC-RPA, TRAH-SCF, COSX integrals
   Lee Huntington         : MR-EOM, pCC
   Robert Izsak           : Overlap fitted RIJCOSX, COSX-SCS-MP3, EOM
   Marcus Kettner         : VPT2
   Christian Kollmar      : KDIIS, OOCD, Brueckner-CCSD(T), CCSD density, CASPT2, CASPT2-K
   Simone Kossmann        : Meta GGA functionals, TD-DFT gradient, OOMP2, MP2 Hessian
   Martin Krupicka        : Initial AUTO-CI
   Lucas Lang             : DCDCAS
   Marvin Lechner         : AUTO-CI (C++ implementation), FIC-MRCC
   Dagmar Lenk            : GEPOL surface, SMD
   Dimitrios Liakos       : Extrapolation schemes; Compound Job, initial MDCI parallelization
   Dimitrios Manganas     : Further ROCIS development; embedding schemes
   Dimitrios Pantazis     : SARC Basis sets
   Anastasios Papadopoulos: AUTO-CI, single reference methods and gradients
   Taras Petrenko         : DFT Hessian,TD-DFT gradient, ASA, ECA, R-Raman, ABS, FL, XAS/XES, NRVS
   Peter Pinski           : DLPNO-MP2, DLPNO-MP2 Gradient
   Christoph Reimann      : Effective Core Potentials
   Marius Retegan         : Local ZFS, SOC
   Christoph Riplinger    : Optimizer, TS searches, QM/MM, DLPNO-CCSD(T), (RO)-DLPNO pert. Triples
   Tobias Risthaus        : Range-separated hybrids, TD-DFT gradient, RPA, STAB
   Michael Roemelt        : Original ROCIS implementation
   Masaaki Saitow         : Open-shell DLPNO-CCSD energy and density
   Barbara Sandhoefer     : DKH picture change effects
   Avijit Sen             : IP-ROCIS
   Kantharuban Sivalingam : CASSCF convergence, NEVPT2, FIC-MRCI
   Bernardo de Souza      : ESD, SOC TD-DFT
   Georgi Stoychev        : AutoAux, RI-MP2 NMR, DLPNO-MP2 response
   Willem Van den Heuvel  : Paramagnetic NMR
   Boris Wezisla          : Elementary symmetry handling
   Frank Wennmohs         : Technical directorship


 We gratefully acknowledge several colleagues who have allowed us to
 interface, adapt or use parts of their codes:
   Stefan Grimme, W. Hujo, H. Kruse, P. Pracht,  : VdW corrections, initial TS optimization,
                  C. Bannwarth, S. Ehlert          DFT functionals, gCP, sTDA/sTD-DF
   Ed Valeev, F. Pavosevic, A. Kumar             : LibInt (2-el integral package), F12 methods
   Garnet Chan, S. Sharma, J. Yang, R. Olivares  : DMRG
   Ulf Ekstrom                                   : XCFun DFT Library
   Mihaly Kallay                                 : mrcc  (arbitrary order and MRCC methods)
   Jiri Pittner, Ondrej Demel                    : Mk-CCSD
   Frank Weinhold                                : gennbo (NPA and NBO analysis)
   Christopher J. Cramer and Donald G. Truhlar   : smd solvation model
   Lars Goerigk                                  : TD-DFT with DH, B97 family of functionals
   V. Asgeirsson, H. Jonsson                     : NEB implementation
   FAccTs GmbH                                   : IRC, NEB, NEB-TS, DLPNO-Multilevel, CI-OPT
                                                   MM, QMMM, 2- and 3-layer-ONIOM, Crystal-QMMM,
                                                   LR-CPCM, SF, NACMEs, symmetry and pop. for TD-DFT,
                                                   nearIR, NL-DFT gradient (VV10), updates on ESD,
                                                   ML-optimized integration grids
   S Lehtola, MJT Oliveira, MAL Marques          : LibXC Library
   Liviu Ungur et al                             : ANISO software


 Your calculation uses the libint2 library for the computation of 2-el integrals
 For citations please refer to: http://libint.valeyev.net

 Your ORCA version has been built with support for libXC version: 5.1.0
 For citations please refer to: https://tddft.org/programs/libxc/

 This ORCA versions uses:
   CBLAS   interface :  Fast vector & matrix operations
   LAPACKE interface :  Fast linear algebra routines
   SCALAPACK package :  Parallel linear algebra routines
   Shared memory     :  Shared parallel matrices
   BLAS/LAPACK       :  OpenBLAS 0.3.15  USE64BITINT DYNAMIC_ARCH NO_AFFINITY SkylakeX SINGLE_THREADED
        Core in use  :  SkylakeX
   Copyright (c) 2011-2014, The OpenBLAS Project


Your calculation utilizes the geometrical counterpoise correction gCP
Please cite in your paper:
H.Kruse, S. Grimme J.Chem.Phys., 136, (2012), 154101 
   

Your calculation utilizes the atom-pairwise dispersion correction
with the Becke-Johnson damping scheme (D3BJ)
Cite in your paper:
S.Grimme, S.Ehrlich, L.Goerigk, J Comput Chem, (2011), 32, 1456–1465 
S.Grimme, J.Antony, S.Ehrlich and H.Krieg, J.Chem.Phys., 132, (2010), 154104 
   

Your calculation employs the composite approach PBEh-3c.
Please cite in your paper:
S. Grimme, J. G. Brandenburg, C. Bannwarth, A. Hansen J.Chem.Phys., 143, (2015), 054107 
   

================================================================================

cite the ECPs for Pd [Def2-ECP] as follows:
Ce-Yb(ecp-28): M. Dolg, H. Stoll, H.Preuss, J. Chem. Phys., 1989, 90, 1730-1734.
Y-Cd(ecp-28), Hf-Hg(ecp-46): D. Andrae,U. Haeussermann, M. Dolg, H. Stoll, H. Preuss, Theor. Chim. Acta, 1990, 77, 123-141.
In-Sb(ecp-28), Tl-Bi(ecp-46): B. Metz, H. Stoll, M. Dolg, J. Chem. Phys., 2000, 113, 2563-2569.
Te-Xe(ecp-28), Po-Rn(ecp-46): K. A. Peterson, D. Figgen, E. Goll, H. Stoll, M. Dolg, J. Chem. Phys., 2003, 119, 11113-11123.
Rb(ecp-28), Cs(ecp-46): T. Leininger, A. Nicklass, W. Kuechle, H. Stoll, M. Dolg, A. Bergner, Chem. Phys. Lett., 1996, 255, 274-280.
Sr(ecp-28), Ba(ecp-46): M. Kaupp, P. V. Schleyer, H. Stoll and H. Preuss, J. Chem. Phys., 1991, 94, 1360-1366.
La(ecp-46): M. Dolg, H. Stoll, A. Savin, H. Preuss, Theor. Chim. Acta, 1989, 75, 173-194.
Lu(ecp-28): X. Cao, M. Dolg, J. Chem. Phys., 2001, 115, 7348-7355.

ECP parameters for Pd [Def2-ECP] have been obtained from:
TURBOMOLE (7.0.2)

----- Orbital basis set information -----
Your calculation utilizes the basis: def2-mSVP

----- AuxJ basis set information -----
Your calculation utilizes the auxiliary basis: def2/J
   F. Weigend, Phys. Chem. Chem. Phys. 8, 1057 (2006).

================================================================================
                                        WARNINGS
                       Please study these warnings very carefully!
================================================================================


INFO   : the flag for use of the SHARK integral package has been found!

================================================================================
                                       INPUT FILE
================================================================================
NAME = 5_7_orca.inp
|  1> ! EnGrad PBEh-3c
|  2> %output 
|  3> xyzfile=True 
|  4> end 
|  5> %scf 
|  6> maxiter 250 
|  7> end
|  8> %output
|  9> Print[P_Hirshfeld] = 1
| 10> end
| 11> % maxcore
| 12> 4000
| 13> *xyz -1 1
| 14> Pd  -2.07584763  -1.55326466   0.47882742 
| 15> Cl  -3.57231766  -3.23174681  -0.16378073 
| 16> Cl  -0.60453917  -4.12839127   1.07643176 
| 17> Cl  -3.88328893  -0.15457472   0.70422710 
| 18> N   -0.96310569  -0.15193890   1.41642963 
| 19> C   -1.28007216   0.39318243   2.58017706 
| 20> C   -0.75709564   1.60900478   3.01012331 
| 21> C    0.08114143   2.29430283   2.16776776 
| 22> C   -0.05167295   0.44315446   0.61245576 
| 23> C    0.45031872   1.72409413   0.94713227 
| 24> H    0.47150784   3.27764276   2.43102875 
| 25> H   -1.98281794  -0.14089334   3.20784894 
| 26> H   -1.05068406   2.02535969   3.96930671 
| 27> C    0.37610842  -0.24488994  -0.57990533 
| 28> C    1.30489066   2.40936918   0.04103295 
| 29> C    1.63632332   1.82376560  -1.12296694 
| 30> C    1.20225492   0.50529391  -1.45911592 
| 31> H    1.67978799   3.39513486   0.31190275 
| 32> H    2.28656356   2.34352806  -1.81695310 
| 33> C   -0.06612837  -1.57624736  -0.84101428 
| 34> C    1.62396706  -0.06542646  -2.66272183 
| 35> C    0.39323455  -2.07492346  -2.07896484 
| 36> C    1.21787301  -1.34292814  -2.96055929 
| 37> H    2.29731672   0.50014128  -3.30731723 
| 38> H    1.57459365  -1.78941753  -3.88396099 
| 39> H   -0.43564976  -3.21536321   0.36021562 
| 40> H    0.10675214  -3.06693121  -2.42833819 
| 41> *
| 42> 
| 43>                          ****END OF INPUT****
================================================================================

                     *******************************
                     * Energy+Gradient Calculation *
                     *******************************

---------------------------------
CARTESIAN COORDINATES (ANGSTROEM)
---------------------------------
  Pd    -2.075848   -1.553265    0.478827
  Cl    -3.572318   -3.231747   -0.163781
  Cl    -0.604539   -4.128391    1.076432
  Cl    -3.883289   -0.154575    0.704227
  N     -0.963106   -0.151939    1.416430
  C     -1.280072    0.393182    2.580177
  C     -0.757096    1.609005    3.010123
  C      0.081141    2.294303    2.167768
  C     -0.051673    0.443154    0.612456
  C      0.450319    1.724094    0.947132
  H      0.471508    3.277643    2.431029
  H     -1.982818   -0.140893    3.207849
  H     -1.050684    2.025360    3.969307
  C      0.376108   -0.244890   -0.579905
  C      1.304891    2.409369    0.041033
  C      1.636323    1.823766   -1.122967
  C      1.202255    0.505294   -1.459116
  H      1.679788    3.395135    0.311903
  H      2.286564    2.343528   -1.816953
  C     -0.066128   -1.576247   -0.841014
  C      1.623967   -0.065426   -2.662722
  C      0.393235   -2.074923   -2.078965
  C      1.217873   -1.342928   -2.960559
  H      2.297317    0.500141   -3.307317
  H      1.574594   -1.789418   -3.883961
  H     -0.435650   -3.215363    0.360216
  H      0.106752   -3.066931   -2.428338

----------------------------
CARTESIAN COORDINATES (A.U.)
----------------------------
  NO LB      ZA    FRAG     MASS         X           Y           Z
   0 Pd   18.0000*   0   106.400   -3.922784   -2.935245    0.904853
   1 Cl   17.0000    0    35.453   -6.750702   -6.107116   -0.309501
   2 Cl   17.0000    0    35.453   -1.142413   -7.801529    2.034161
   3 Cl   17.0000    0    35.453   -7.338353   -0.292104    1.330796
   4 N     7.0000    0    14.007   -1.820006   -0.287123    2.676664
   5 C     6.0000    0    12.011   -2.418986    0.743007    4.875828
   6 C     6.0000    0    12.011   -1.430703    3.040578    5.688309
   7 C     6.0000    0    12.011    0.153335    4.335604    4.096487
   8 C     6.0000    0    12.011   -0.097648    0.837441    1.157374
   9 C     6.0000    0    12.011    0.850979    3.258066    1.789821
  10 H     1.0000    0     1.008    0.891021    6.193847    4.593979
  11 H     1.0000    0     1.008   -3.746983   -0.266250    6.061956
  12 H     1.0000    0     1.008   -1.985505    3.827375    7.500903
  13 C     6.0000    0    12.011    0.710742   -0.462775   -1.095862
  14 C     6.0000    0    12.011    2.465886    4.553048    0.077541
  15 C     6.0000    0    12.011    3.092203    3.446418   -2.122100
  16 C     6.0000    0    12.011    2.271933    0.954867   -2.757329
  17 H     1.0000    0     1.008    3.174339    6.415875    0.589411
  18 H     1.0000    0     1.008    4.320979    4.428626   -3.433544
  19 C     6.0000    0    12.011   -0.124965   -2.978676   -1.589287
  20 C     6.0000    0    12.011    3.068853   -0.123638   -5.031815
  21 C     6.0000    0    12.011    0.743106   -3.921037   -3.928674
  22 C     6.0000    0    12.011    2.301446   -2.537766   -5.594646
  23 H     1.0000    0     1.008    4.341299    0.945130   -6.249924
  24 H     1.0000    0     1.008    2.975551   -3.381509   -7.339623
  25 H     1.0000    0     1.008   -0.823259   -6.076156    0.680709
  26 H     1.0000    0     1.008    0.201732   -5.795660   -4.588894
* core charge reduced due to ECP

--------------------------------
INTERNAL COORDINATES (ANGSTROEM)
--------------------------------
 Pd     0   0   0     0.000000000000     0.00000000     0.00000000
 Cl     1   0   0     2.338732586895     0.00000000     0.00000000
 Cl     1   2   0     3.025418415556    75.79330324     0.00000000
 Cl     1   2   3     2.296515320425    87.73505312   203.02950935
 N      1   2   3     2.020150097114   167.90985722   272.56803140
 C      5   1   4     1.323606092596   124.18387812    52.24475446
 C      6   5   1     1.391611370002   122.78359422   200.31409568
 C      7   6   5     1.371800887692   118.44908375     2.62886589
 C      5   1   4     1.353225676043   113.59679029   248.58551574
 C      8   7   6     1.396918334211   119.61260420   356.14557495
 H      8   7   6     1.090252127191   121.40514219   176.37243876
 H      6   5   1     1.083079197636   117.50510203    19.89197145
 H      7   6   5     1.086083959128   120.41090922   179.46133106
 C      9   5   1     1.441571006172   118.77585086   337.90153063
 C     10   8   7     1.421587518408   121.26870512   179.29046785
 C     15  10   8     1.344498012250   119.34352034   179.94927802
 C     14   9   5     1.420670654948   115.62097863   172.41182898
 H     15  10   8     1.088876683770   119.00039650     0.32898902
 H     16  15  10     1.083781423910   119.56348880   179.92159243
 C     14   9   5     1.426977169400   120.31065684   354.54255471
 C     17  14   9     1.397222264474   119.53372376   182.31159914
 C     20  14   9     1.411458017082   112.90825223   177.11070840
 C     21  17  14     1.373182461448   118.52800216     0.23297696
 H     21  17  14     1.090307233238   118.93370379   182.96805143
 H     23  21  17     1.085943410104   118.02076664   181.79753165
 H      3   1   2     1.172650600287    44.49428991   116.96439613
 H     22  20  14     1.090051964353   121.13824665   182.10251139

---------------------------
INTERNAL COORDINATES (A.U.)
---------------------------
 Pd     0   0   0     0.000000000000     0.00000000     0.00000000
 Cl     1   0   0     4.419564089708     0.00000000     0.00000000
 Cl     1   2   0     5.717212245923    75.79330324     0.00000000
 Cl     1   2   3     4.339785017958    87.73505312   203.02950935
 N      1   2   3     3.817530432961   167.90985722   272.56803140
 C      5   1   4     2.501253024196   124.18387812    52.24475446
 C      6   5   1     2.629764374155   122.78359422   200.31409568
 C      7   6   5     2.592327988007   118.44908375     2.62886589
 C      5   1   4     2.557225925112   113.59679029   248.58551574
 C      8   7   6     2.639793083112   119.61260420   356.14557495
 H      8   7   6     2.060277937316   121.40514219   176.37243876
 H      6   5   1     2.046723064879   117.50510203    19.89197145
 H      7   6   5     2.052401241197   120.41090922   179.46133106
 C      9   5   1     2.724174404267   118.77585086   337.90153063
 C     10   8   7     2.686411085191   121.26870512   179.29046785
 C     15  10   8     2.540733030754   119.34352034   179.94927802
 C     14   9   5     2.684678464351   115.62097863   172.41182898
 H     15  10   8     2.057678725939   119.00039650     0.32898902
 H     16  15  10     2.048050080221   119.56348880   179.92159243
 C     14   9   5     2.696596049524   120.31065684   354.54255471
 C     17  14   9     2.640367428074   119.53372376   182.31159914
 C     20  14   9     2.667269101813   112.90825223   177.11070840
 C     21  17  14     2.594938784040   118.52800216     0.23297696
 H     21  17  14     2.060382072654   118.93370379   182.96805143
 H     23  21  17     2.052135642032   118.02076664   181.79753165
 H      3   1   2     2.215988485321    44.49428991   116.96439613
 H     22  20  14     2.059899684370   121.13824665   182.10251139

---------------------
BASIS SET INFORMATION
---------------------
There are 5 groups of distinct atoms

 Group   1 Type Pd  : 7s6p5d1f contracted to 5s3p2d1f pattern {31111/411/41/1}
 Group   2 Type Cl  : 10s7p1d contracted to 4s3p1d pattern {5311/511/1}
 Group   3 Type N   : 8s4p1d contracted to 4s2p1d pattern {5111/31/1}
 Group   4 Type C   : 8s4p1d contracted to 4s2p1d pattern {5111/31/1}
 Group   5 Type H   : 4s contracted to 2s pattern {31}

Atom   0Pd   basis set group =>   1
Atom   1Cl   basis set group =>   2
Atom   2Cl   basis set group =>   2
Atom   3Cl   basis set group =>   2
Atom   4N    basis set group =>   3
Atom   5C    basis set group =>   4
Atom   6C    basis set group =>   4
Atom   7C    basis set group =>   4
Atom   8C    basis set group =>   4
Atom   9C    basis set group =>   4
Atom  10H    basis set group =>   5
Atom  11H    basis set group =>   5
Atom  12H    basis set group =>   5
Atom  13C    basis set group =>   4
Atom  14C    basis set group =>   4
Atom  15C    basis set group =>   4
Atom  16C    basis set group =>   4
Atom  17H    basis set group =>   5
Atom  18H    basis set group =>   5
Atom  19C    basis set group =>   4
Atom  20C    basis set group =>   4
Atom  21C    basis set group =>   4
Atom  22C    basis set group =>   4
Atom  23H    basis set group =>   5
Atom  24H    basis set group =>   5
Atom  25H    basis set group =>   5
Atom  26H    basis set group =>   5
---------------------------------
AUXILIARY/J BASIS SET INFORMATION
---------------------------------
There are 5 groups of distinct atoms

 Group   1 Type Pd  : 11s5p5d3f3g contracted to 8s5p5d2f3g pattern {41111111/11111/11111/21/111}
 Group   2 Type Cl  : 14s5p5d2f1g contracted to 8s4p3d1f1g pattern {71111111/2111/311/2/1}
 Group   3 Type N   : 12s5p4d2f1g contracted to 6s4p3d1f1g pattern {711111/2111/211/2/1}
 Group   4 Type C   : 12s5p4d2f1g contracted to 6s4p3d1f1g pattern {711111/2111/211/2/1}
 Group   5 Type H   : 5s2p1d contracted to 3s1p1d pattern {311/2/1}

Atom   0Pd   basis set group =>   1
Atom   1Cl   basis set group =>   2
Atom   2Cl   basis set group =>   2
Atom   3Cl   basis set group =>   2
Atom   4N    basis set group =>   3
Atom   5C    basis set group =>   4
Atom   6C    basis set group =>   4
Atom   7C    basis set group =>   4
Atom   8C    basis set group =>   4
Atom   9C    basis set group =>   4
Atom  10H    basis set group =>   5
Atom  11H    basis set group =>   5
Atom  12H    basis set group =>   5
Atom  13C    basis set group =>   4
Atom  14C    basis set group =>   4
Atom  15C    basis set group =>   4
Atom  16C    basis set group =>   4
Atom  17H    basis set group =>   5
Atom  18H    basis set group =>   5
Atom  19C    basis set group =>   4
Atom  20C    basis set group =>   4
Atom  21C    basis set group =>   4
Atom  22C    basis set group =>   4
Atom  23H    basis set group =>   5
Atom  24H    basis set group =>   5
Atom  25H    basis set group =>   5
Atom  26H    basis set group =>   5
-------------------------
ECP PARAMETER INFORMATION
-------------------------

 Group 1, Type Pd ECP Def2-ECP (replacing 28 core electrons, lmax=3)

Atom   0Pd   ECP group =>   1

------------------------------------------------------------------------------
                           ORCA GTO INTEGRAL CALCULATION
                           -- RI-GTO INTEGRALS CHOSEN --
------------------------------------------------------------------------------
------------------------------------------------------------------------------
                   ___                                                        
                  /   \      - P O W E R E D   B Y -                         
                 /     \                                                     
                 |  |  |   _    _      __       _____    __    __             
                 |  |  |  | |  | |    /  \     |  _  \  |  |  /  |          
                  \  \/   | |  | |   /    \    | | | |  |  | /  /          
                 / \  \   | |__| |  /  /\  \   | |_| |  |  |/  /          
                |  |  |   |  __  | /  /__\  \  |    /   |      \           
                |  |  |   | |  | | |   __   |  |    \   |  |\   \          
                \     /   | |  | | |  |  |  |  | |\  \  |  | \   \       
                 \___/    |_|  |_| |__|  |__|  |_| \__\ |__|  \__/        
                                                                              
                      - O R C A' S   B I G   F R I E N D -                    
                                      &                                       
                       - I N T E G R A L  F E E D E R -                       
                                                                              
 v1 FN, 2020, v2 2021                                                         
------------------------------------------------------------------------------


Reading SHARK input file 5_7_orca.SHARKINP.tmp ... ok
----------------------
SHARK INTEGRAL PACKAGE
----------------------

Number of atoms                             ...     27
Number of basis functions                   ...    313
Number of shells                            ...    151
Maximum angular momentum                    ...      3
Integral batch strategy                     ... SHARK/LIBINT Hybrid
RI-J (if used) integral strategy            ... SPLIT-RIJ (Revised 2003 algorithm where possible)
Printlevel                                  ...      1
Contraction scheme used                     ... SEGMENTED contraction
Coulomb Range Separation                    ... NOT USED
Exchange Range Separation                   ... NOT USED
Finite Nucleus Model                        ... NOT USED
Auxiliary Coulomb fitting basis             ... AVAILABLE
   # of basis functions in Aux-J            ...   1027
   # of shells in Aux-J                     ...    329
   Maximum angular momentum in Aux-J        ...      4
Auxiliary J/K fitting basis                 ... NOT available
Auxiliary Correlation fitting basis         ... NOT available
Auxiliary 'external' fitting basis          ... NOT available
Integral threshold                          ...     2.500000e-11
Primitive cut-off                           ...     2.500000e-12
Primitive pair pre-selection threshold      ...     2.500000e-12

Calculating pre-screening integrals         ... done (  0.1 sec) Dimension = 151
Organizing shell pair data                  ... done (  0.1 sec)
Shell pair information
Total number of shell pairs                 ...     11476
Shell pairs after pre-screening             ...      8640
Total number of primitive shell pairs       ...     42779
Primitive shell pairs kept                  ...     20409
          la=0 lb=0:   2829 shell pairs
          la=1 lb=0:   2951 shell pairs
          la=1 lb=1:    743 shell pairs
          la=2 lb=0:   1213 shell pairs
          la=2 lb=1:    645 shell pairs
          la=2 lb=2:    149 shell pairs
          la=3 lb=0:     58 shell pairs
          la=3 lb=1:     37 shell pairs
          la=3 lb=2:     14 shell pairs
          la=3 lb=3:      1 shell pairs

Calculating one electron integrals          ... done (  0.1 sec)
Calculating ECP integrals                   ... done (  0.3 sec)
Calculating RI/J V-Matrix + Cholesky decomp.... done (  0.1 sec)
Calculating Nuclear repulsion               ... done (  0.0 sec) ENN=   1848.942053768052 Eh

SHARK setup successfully completed in   0.9 seconds

Maximum memory used throughout the entire GTOINT-calculation: 72.6 MB
-------------------------------------------------------------------------------
                                 ORCA SCF
-------------------------------------------------------------------------------

------------
SCF SETTINGS
------------
Hamiltonian:
 Density Functional     Method          .... DFT(GTOs)
 Exchange Functional    Exchange        .... PBE
   PBE kappa parameter   XKappa         ....  1.024500
   PBE mue parameter    XMuePBE         ....  0.123457
 Correlation Functional Correlation     .... PBE
   PBE beta parameter  CBetaPBE         ....  0.030000
 LDA part of GGA corr.  LDAOpt          .... PW91-LDA
 Gradients option       PostSCFGGA      .... off
 Hybrid DFT is turned on
   Fraction HF Exchange ScalHFX         ....  0.420000
   Scaling of DF-GGA-X  ScalDFX         ....  0.580000
   Scaling of DF-GGA-C  ScalDFC         ....  1.000000
   Scaling of DF-LDA-C  ScalLDAC        ....  1.000000
   Perturbative correction              ....  0.000000
   Density functional embedding theory  .... OFF
 RI-approximation to the Coulomb term is turned on
   Number of AuxJ basis functions       .... 1027
   RIJ-ON(X) (HFX calculated with O(N)) .... on
   Number of AuxJ basis functions       .... 1027
   RIJ-COSX (HFX calculated with COS-X)).... on


General Settings:
 Integral files         IntName         .... 5_7_orca
 Hartree-Fock type      HFTyp           .... RHF
 Total Charge           Charge          ....   -1
 Multiplicity           Mult            ....    1
 Number of Electrons    NEL             ....  164
 Basis Dimension        Dim             ....  313
 Nuclear Repulsion      ENuc            ....   1848.9420537681 Eh

Convergence Acceleration:
 DIIS                   CNVDIIS         .... on
   Start iteration      DIISMaxIt       ....    12
   Startup error        DIISStart       ....  0.200000
   # of expansion vecs  DIISMaxEq       ....     5
   Bias factor          DIISBfac        ....   1.050
   Max. coefficient     DIISMaxC        ....  10.000
 Trust-Rad. Augm. Hess. CNVTRAH         .... auto
   Auto Start mean grad. ratio tolernc. ....  1.125000
   Auto Start start iteration           ....    20
   Auto Start num. interpolation iter.  ....    10
   Max. Number of Micro iterations      ....    16
   Max. Number of Macro iterations      .... Maxiter - #DIIS iter
   Number of Davidson start vectors     ....     2
   Converg. threshold I  (grad. norm)   ....   1.000e-05
   Converg. threshold II (energy diff.) ....   1.000e-08
   Grad. Scal. Fac. for Micro threshold ....   0.100
   Minimum threshold for Micro iter.    ....   0.010
   NR start threshold (gradient norm)   ....   0.001
   Initial trust radius                 ....   0.400
   Minimum AH scaling param. (alpha)    ....   1.000
   Maximum AH scaling param. (alpha)    .... 1000.000
   Orbital update algorithm             .... Taylor
   White noise on init. David. guess    .... on
   Maximum white noise                  ....   0.010
   Quad. conv. algorithm                .... NR
   COSX micro iterations for RIJONX calc.... off
 SOSCF                  CNVSOSCF        .... off
 Level Shifting         CNVShift        .... on
   Level shift para.    LevelShift      ....    0.2500
   Turn off err/grad.   ShiftErr        ....    0.0010
 Zerner damping         CNVZerner       .... off
 Static damping         CNVDamp         .... on
   Fraction old density DampFac         ....    0.7000
   Max. Damping (<1)    DampMax         ....    0.9800
   Min. Damping (>=0)   DampMin         ....    0.0000
   Turn off err/grad.   DampErr         ....    0.1000
 Fernandez-Rico         CNVRico         .... off

SCF Procedure:
 Maximum # iterations   MaxIter         ....   250
 SCF integral mode      SCFMode         .... Direct
   Integral package                     .... SHARK and LIBINT hybrid scheme
 Reset frequency        DirectResetFreq ....    20
 Integral Threshold     Thresh          ....  2.500e-11 Eh
 Primitive CutOff       TCut            ....  2.500e-12 Eh

Convergence Tolerance:
 Convergence Check Mode ConvCheckMode   .... Total+1el-Energy
 Convergence forced     ConvForced      .... 0
 Energy Change          TolE            ....  1.000e-08 Eh
 1-El. energy change                    ....  1.000e-05 Eh
 DIIS Error             TolErr          ....  5.000e-07


Diagonalization of the overlap matrix:
Smallest eigenvalue                        ... 3.391e-04
Time for diagonalization                   ...    0.014 sec
Threshold for overlap eigenvalues          ... 1.000e-08
Number of eigenvalues below threshold      ... 0
Time for construction of square roots      ...    0.005 sec
Total time needed                          ...    0.020 sec

--------------------------------
INITIAL GUESS: MINIMAL BASIS EHT
--------------------------------
The minimal basis has 119 functions
EHT matrix was diagonalized
Basis set overlap was calculated now projecting the orbitals
Using GuessMode=FMatrix for the initial guess
C*T matrix was formed
Effective Fockian was calculated
Effective Fockian was diagonalized
Initial density was built
                      ------------------
                      INITIAL GUESS DONE
                      ------------------
-------------------
DFT GRID GENERATION
-------------------

General Integration Accuracy     IntAcc      ... 4.159
Radial Grid Type                 RadialGrid  ... OptM3 with GC (2021)
Angular Grid (max. ang.)         AngularGrid ... 3 (Lebedev-194)
Angular grid pruning method      GridPruning ... 4 (adaptive)
Weight generation scheme         WeightScheme... Becke
Basis function cutoff            BFCut       ... 1.0000e-11
Integration weight cutoff        WCut        ... 1.0000e-14
Angular grids for H and He will be reduced by one unit
Partially contracted basis set               ... off
Rotationally invariant grid construction     ... off

Total number of grid points                  ...    76234
Total number of batches                      ...     1205
Average number of points per batch           ...       63
Average number of grid points per atom       ...     2823
Time for grid setup =    1.300 sec

--------------------
COSX GRID GENERATION
--------------------

GRIDX 1
-------
General Integration Accuracy     IntAcc      ... 3.816
Radial Grid Type                 RadialGrid  ... OptM3 with GC (2021)
Angular Grid (max. ang.)         AngularGrid ... 1 (Lebedev-50)
Angular grid pruning method      GridPruning ... 4 (adaptive)
Weight generation scheme         WeightScheme... Becke
Basis function cutoff            BFCut       ... 1.0000e-11
Integration weight cutoff        WCut        ... 1.0000e-14
Angular grids for H and He will be reduced by one unit
Partially contracted basis set               ... on
Rotationally invariant grid construction     ... off

Total number of grid points                  ...    17833
Total number of batches                      ...      291
Average number of points per batch           ...       61
Average number of grid points per atom       ...      660
UseSFitting                                  ... on

GRIDX 2
-------
General Integration Accuracy     IntAcc      ... 4.020
Radial Grid Type                 RadialGrid  ... OptM3 with GC (2021)
Angular Grid (max. ang.)         AngularGrid ... 2 (Lebedev-110)
Angular grid pruning method      GridPruning ... 4 (adaptive)
Weight generation scheme         WeightScheme... Becke
Basis function cutoff            BFCut       ... 1.0000e-11
Integration weight cutoff        WCut        ... 1.0000e-14
Angular grids for H and He will be reduced by one unit
Partially contracted basis set               ... on
Rotationally invariant grid construction     ... off

Total number of grid points                  ...    39833
Total number of batches                      ...      637
Average number of points per batch           ...       62
Average number of grid points per atom       ...     1475
UseSFitting                                  ... on

GRIDX 3
-------
General Integration Accuracy     IntAcc      ... 4.338
Radial Grid Type                 RadialGrid  ... OptM3 with GC (2021)
Angular Grid (max. ang.)         AngularGrid ... 3 (Lebedev-194)
Angular grid pruning method      GridPruning ... 4 (adaptive)
Weight generation scheme         WeightScheme... Becke
Basis function cutoff            BFCut       ... 1.0000e-11
Integration weight cutoff        WCut        ... 1.0000e-14
Angular grids for H and He will be reduced by one unit
Partially contracted basis set               ... on
Rotationally invariant grid construction     ... off

Total number of grid points                  ...    88536
Total number of batches                      ...     1398
Average number of points per batch           ...       63
Average number of grid points per atom       ...     3279
UseSFitting                                  ... on

Time for X-Grid setup             =    3.296 sec

--------------
SCF ITERATIONS
--------------
ITER       Energy         Delta-E        Max-DP      RMS-DP      [F,P]     Damp
               ***  Starting incremental Fock matrix formation  ***
  0  -2049.0325032078   0.000000000000 3.18389469  0.05287518  5.2611835 0.7000
  1  -2037.2176529153  11.814850292554 5.32174186  0.06835648  3.9963439 0.7000
  2  -2035.4940333270   1.723619588289 2.60961319  0.03021010  2.6402381 0.7000
  3  -2038.6147262464  -3.120692919361 3.54365719  0.03662721  1.9499931 0.7000
  4  -2040.7225839086  -2.107857662207 2.34110855  0.02705217  1.2357993 0.7000
  5  -2044.8334642345  -4.110880325932 1.87097248  0.02156742  0.9674272 0.7000
  6  -2048.1742661619  -3.340801927362 2.03815403  0.01788181  0.5713952 0.7000
  7  -2052.3786902992  -4.204424137384 1.39293605  0.01279432  0.4902769 0.7000
  8  -2054.8116495813  -2.432959282041 0.94161466  0.00917311  0.3932153 0.7000
  9  -2056.7607350333  -1.949085452060 0.66037858  0.00647985  0.2668719 0.7000
                               ***Turning on DIIS***
 10  -2058.1351520617  -1.374417028320 0.47379134  0.00458698  0.1791707 0.7000
 11  -2059.1116356868  -0.976483625101 0.34555501  0.00328575  0.1232717 0.7000
 12  -2059.8053752145  -0.693739527776 0.82647864  0.00781272  0.0881700 0.0000
 13  -2061.4537683456  -1.648393131054 0.00932840  0.00019005  0.0057421 0.0000
 14  -2061.4544835656  -0.000715220029 0.00635127  0.00009122  0.0023770 0.0000
 15  -2061.4547157587  -0.000232193066 0.00368251  0.00005843  0.0016781 0.0000
 16  -2061.4548124286  -0.000096669939 0.00187112  0.00004402  0.0014787 0.0000
 17  -2061.4548676772  -0.000055248535 0.00241225  0.00005233  0.0003844 0.0000
               *** Restarting incremental Fock matrix formation ***
                                   *** Resetting DIIS ***
 18  -2061.4547457192   0.000121957989 0.00306950  0.00004879  0.0003311 0.0000
 19  -2061.4547483022  -0.000002583064 0.00074374  0.00000989  0.0004196 0.0000
 20  -2061.4547497102  -0.000001407936 0.00054836  0.00000605  0.0002173 0.0000
 21  -2061.4547502244  -0.000000514192 0.00027924  0.00000316  0.0001004 0.0000
 22  -2061.4547503852  -0.000000160786 0.00027097  0.00000232  0.0000650 0.0000
 23  -2061.4547504569  -0.000000071730 0.00017697  0.00000153  0.0000394 0.0000
 24  -2061.4547504817  -0.000000024777 0.00011106  0.00000091  0.0000218 0.0000
 25  -2061.4547504879  -0.000000006267 0.00005033  0.00000043  0.0000102 0.0000
 26  -2061.4547504897  -0.000000001740 0.00003007  0.00000025  0.0000051 0.0000
 27  -2061.4547504902  -0.000000000513 0.00001276  0.00000010  0.0000019 0.0000
 28  -2061.4547504885   0.000000001722 0.00000438  0.00000005  0.0000012 0.0000
                 **** Energy Check signals convergence ****

               *****************************************************
               *                     SUCCESS                       *
               *           SCF CONVERGED AFTER  29 CYCLES          *
               *****************************************************

Old exchange energy                            =    -72.221918714 Eh
New exchange energy                            =    -72.221989288 Eh
Exchange energy change after final integration =     -0.000070574 Eh
Total energy after final integration           =  -2061.454821057 Eh
Final COS-X integration done in                =    40.601 sec

----------------
TOTAL SCF ENERGY
----------------

Total Energy       :        -2061.45482106 Eh          -56095.03750 eV

Components:
Nuclear Repulsion  :         1848.94205377 Eh           50312.27111 eV
Electronic Energy  :        -3910.39687483 Eh         -106407.30861 eV
One Electron Energy:        -6587.34780083 Eh         -179250.84660 eV
Two Electron Energy:         2676.95092601 Eh           72843.53799 eV
Max COSX asymmetry :            0.00001835 Eh               0.00050 eV

Virial components:
Potential Energy   :        -4037.03960301 Eh         -109853.43244 eV
Kinetic Energy     :         1975.58478195 Eh           53758.39494 eV
Virial Ratio       :            2.04346563


DFT components:
N(Alpha)           :       81.999723370725 electrons
N(Beta)            :       81.999723370725 electrons
N(Total)           :      163.999446741449 electrons
E(X)               :      -96.379402540596 Eh       
E(C)               :       -7.771565722990 Eh       
E(XC)              :     -104.150968263587 Eh       
DFET-embed. en.    :        0.000000000000 Eh       

---------------
SCF CONVERGENCE
---------------

  Last Energy change         ...    5.2300e-09  Tolerance :   1.0000e-08
  Last MAX-Density change    ...    0.0000e+00  Tolerance :   1.0000e-07
  Last RMS-Density change    ...    0.0000e+00  Tolerance :   5.0000e-09
  Last DIIS Error            ...    4.4492e-07  Tolerance :   5.0000e-07

             **** THE GBW FILE WAS UPDATED (5_7_orca.gbw) ****
             **** DENSITY 5_7_orca.scfp WAS UPDATED ****
             **** ENERGY FILE WAS UPDATED (5_7_orca.en.tmp) ****
             **** THE GBW FILE WAS UPDATED (5_7_orca.gbw) ****
             **** DENSITY 5_7_orca.scfp WAS UPDATED ****
----------------
ORBITAL ENERGIES
----------------

  NO   OCC          E(Eh)            E(eV) 
   0   2.0000    -102.133774     -2779.2013 
   1   2.0000    -102.083837     -2777.8424 
   2   2.0000    -102.069084     -2777.4410 
   3   2.0000     -14.594390      -397.1335 
   4   2.0000     -10.406197      -283.1670 
   5   2.0000     -10.405895      -283.1588 
   6   2.0000     -10.388287      -282.6797 
   7   2.0000     -10.378893      -282.4240 
   8   2.0000     -10.374605      -282.3074 
   9   2.0000     -10.367101      -282.1032 
  10   2.0000     -10.366177      -282.0780 
  11   2.0000     -10.360628      -281.9270 
  12   2.0000     -10.353054      -281.7209 
  13   2.0000     -10.348014      -281.5838 
  14   2.0000     -10.346263      -281.5361 
  15   2.0000     -10.335326      -281.2385 
  16   2.0000     -10.326149      -280.9888 
  17   2.0000      -9.607568      -261.4352 
  18   2.0000      -9.547948      -259.8129 
  19   2.0000      -9.533123      -259.4095 
  20   2.0000      -7.294010      -198.4801 
  21   2.0000      -7.287235      -198.2958 
  22   2.0000      -7.286811      -198.2842 
  23   2.0000      -7.233931      -196.8453 
  24   2.0000      -7.228970      -196.7103 
  25   2.0000      -7.228572      -196.6994 
  26   2.0000      -7.219170      -196.4436 
  27   2.0000      -7.214128      -196.3064 
  28   2.0000      -7.213769      -196.2966 
  29   2.0000      -3.513345       -95.6030 
  30   2.0000      -2.164013       -58.8858 
  31   2.0000      -2.152728       -58.5787 
  32   2.0000      -2.124735       -57.8170 
  33   2.0000      -0.986316       -26.8390 
  34   2.0000      -0.876625       -23.8542 
  35   2.0000      -0.840662       -22.8756 
  36   2.0000      -0.807061       -21.9612 
  37   2.0000      -0.795390       -21.6437 
  38   2.0000      -0.772304       -21.0155 
  39   2.0000      -0.732957       -19.9448 
  40   2.0000      -0.709999       -19.3201 
  41   2.0000      -0.676302       -18.4031 
  42   2.0000      -0.657065       -17.8796 
  43   2.0000      -0.641413       -17.4537 
  44   2.0000      -0.634974       -17.2785 
  45   2.0000      -0.601112       -16.3571 
  46   2.0000      -0.565191       -15.3796 
  47   2.0000      -0.521933       -14.2025 
  48   2.0000      -0.511168       -13.9096 
  49   2.0000      -0.489857       -13.3297 
  50   2.0000      -0.453685       -12.3454 
  51   2.0000      -0.452666       -12.3177 
  52   2.0000      -0.423781       -11.5317 
  53   2.0000      -0.410452       -11.1690 
  54   2.0000      -0.402710       -10.9583 
  55   2.0000      -0.399195       -10.8627 
  56   2.0000      -0.391465       -10.6523 
  57   2.0000      -0.377126       -10.2621 
  58   2.0000      -0.367252        -9.9934 
  59   2.0000      -0.342711        -9.3256 
  60   2.0000      -0.338126        -9.2009 
  61   2.0000      -0.327993        -8.9251 
  62   2.0000      -0.312380        -8.5003 
  63   2.0000      -0.298779        -8.1302 
  64   2.0000      -0.282972        -7.7001 
  65   2.0000      -0.261977        -7.1287 
  66   2.0000      -0.252084        -6.8596 
  67   2.0000      -0.251800        -6.8518 
  68   2.0000      -0.241287        -6.5657 
  69   2.0000      -0.234310        -6.3759 
  70   2.0000      -0.225431        -6.1343 
  71   2.0000      -0.221689        -6.0325 
  72   2.0000      -0.207299        -5.6409 
  73   2.0000      -0.195958        -5.3323 
  74   2.0000      -0.176766        -4.8100 
  75   2.0000      -0.169122        -4.6020 
  76   2.0000      -0.164589        -4.4787 
  77   2.0000      -0.151596        -4.1251 
  78   2.0000      -0.146652        -3.9906 
  79   2.0000      -0.134931        -3.6717 
  80   2.0000      -0.132215        -3.5977 
  81   2.0000      -0.111978        -3.0471 
  82   0.0000       0.049126         1.3368 
  83   0.0000       0.074492         2.0270 
  84   0.0000       0.079231         2.1560 
  85   0.0000       0.114207         3.1077 
  86   0.0000       0.150285         4.0895 
  87   0.0000       0.184629         5.0240 
  88   0.0000       0.196839         5.3563 
  89   0.0000       0.212211         5.7746 
  90   0.0000       0.223594         6.0843 
  91   0.0000       0.230339         6.2678 
  92   0.0000       0.236356         6.4316 
  93   0.0000       0.250431         6.8146 
  94   0.0000       0.264230         7.1901 
  95   0.0000       0.268552         7.3077 
  96   0.0000       0.284128         7.7315 
  97   0.0000       0.295776         8.0485 
  98   0.0000       0.315410         8.5827 
  99   0.0000       0.323684         8.8079 
 100   0.0000       0.330186         8.9848 
 101   0.0000       0.332014         9.0346 
 102   0.0000       0.350068         9.5258 
 103   0.0000       0.353785         9.6270 
 104   0.0000       0.368496        10.0273 
 105   0.0000       0.375497        10.2178 
 106   0.0000       0.393981        10.7208 
 107   0.0000       0.414319        11.2742 
 108   0.0000       0.417792        11.3687 
 109   0.0000       0.428004        11.6466 
 110   0.0000       0.440964        11.9993 
 111   0.0000       0.456475        12.4213 
 112   0.0000       0.470519        12.8035 
 113   0.0000       0.504981        13.7412 
 114   0.0000       0.510012        13.8781 
 115   0.0000       0.519523        14.1369 
 116   0.0000       0.548614        14.9286 
 117   0.0000       0.562000        15.2928 
 118   0.0000       0.586540        15.9606 
 119   0.0000       0.589364        16.0374 
 120   0.0000       0.604887        16.4598 
 121   0.0000       0.609908        16.5965 
 122   0.0000       0.613713        16.7000 
 123   0.0000       0.629406        17.1270 
 124   0.0000       0.636882        17.3304 
 125   0.0000       0.642481        17.4828 
 126   0.0000       0.646283        17.5863 
 127   0.0000       0.656533        17.8652 
 128   0.0000       0.664214        18.0742 
 129   0.0000       0.679543        18.4913 
 130   0.0000       0.693170        18.8621 
 131   0.0000       0.696562        18.9544 
 132   0.0000       0.699397        19.0316 
 133   0.0000       0.704625        19.1738 
 134   0.0000       0.710939        19.3456 
 135   0.0000       0.715279        19.4637 
 136   0.0000       0.722014        19.6470 
 137   0.0000       0.736703        20.0467 
 138   0.0000       0.745795        20.2941 
 139   0.0000       0.748879        20.3780 
 140   0.0000       0.754380        20.5277 
 141   0.0000       0.760065        20.6824 
 142   0.0000       0.767731        20.8910 
 143   0.0000       0.779713        21.2171 
 144   0.0000       0.786016        21.3886 
 145   0.0000       0.802016        21.8240 
 146   0.0000       0.804746        21.8983 
 147   0.0000       0.810055        22.0427 
 148   0.0000       0.831081        22.6149 
 149   0.0000       0.844392        22.9771 
 150   0.0000       0.849628        23.1196 
 151   0.0000       0.871532        23.7156 
 152   0.0000       0.882233        24.0068 
 153   0.0000       0.894764        24.3478 
 154   0.0000       0.909065        24.7369 
 155   0.0000       0.915180        24.9033 
 156   0.0000       0.924899        25.1678 
 157   0.0000       0.937827        25.5196 
 158   0.0000       0.947725        25.7889 
 159   0.0000       0.958478        26.0815 
 160   0.0000       0.964483        26.2449 
 161   0.0000       0.982134        26.7252 
 162   0.0000       0.986315        26.8390 
 163   0.0000       0.989671        26.9303 
 164   0.0000       0.994936        27.0736 
 165   0.0000       1.005631        27.3646 
 166   0.0000       1.026734        27.9388 
 167   0.0000       1.036689        28.2097 
 168   0.0000       1.041040        28.3282 
 169   0.0000       1.045992        28.4629 
 170   0.0000       1.050512        28.5859 
 171   0.0000       1.055551        28.7230 
 172   0.0000       1.059702        28.8360 
 173   0.0000       1.070822        29.1386 
 174   0.0000       1.071884        29.1675 
 175   0.0000       1.077372        29.3168 
 176   0.0000       1.083155        29.4742 
 177   0.0000       1.087920        29.6038 
 178   0.0000       1.090854        29.6836 
 179   0.0000       1.098035        29.8791 
 180   0.0000       1.100693        29.9514 
 181   0.0000       1.113069        30.2882 
 182   0.0000       1.121978        30.5306 
 183   0.0000       1.126548        30.6549 
 184   0.0000       1.141370        31.0582 
 185   0.0000       1.143368        31.1126 
 186   0.0000       1.155064        31.4309 
 187   0.0000       1.170382        31.8477 
 188   0.0000       1.184748        32.2386 
 189   0.0000       1.190384        32.3920 
 190   0.0000       1.197286        32.5798 
 191   0.0000       1.208670        32.8896 
 192   0.0000       1.219276        33.1782 
 193   0.0000       1.226024        33.3618 
 194   0.0000       1.236138        33.6370 
 195   0.0000       1.243813        33.8459 
 196   0.0000       1.250666        34.0323 
 197   0.0000       1.281935        34.8832 
 198   0.0000       1.283351        34.9217 
 199   0.0000       1.302641        35.4467 
 200   0.0000       1.315446        35.7951 
 201   0.0000       1.333443        36.2848 
 202   0.0000       1.339584        36.4519 
 203   0.0000       1.356578        36.9144 
 204   0.0000       1.365832        37.1662 
 205   0.0000       1.367971        37.2244 
 206   0.0000       1.395917        37.9848 
 207   0.0000       1.407214        38.2922 
 208   0.0000       1.431394        38.9502 
 209   0.0000       1.458722        39.6939 
 210   0.0000       1.473818        40.1046 
 211   0.0000       1.491139        40.5760 
 212   0.0000       1.508140        41.0386 
 213   0.0000       1.523341        41.4522 
 214   0.0000       1.534427        41.7539 
 215   0.0000       1.544303        42.0226 
 216   0.0000       1.562208        42.5098 
 217   0.0000       1.570066        42.7237 
 218   0.0000       1.590659        43.2840 
 219   0.0000       1.593185        43.3528 
 220   0.0000       1.606142        43.7053 
 221   0.0000       1.619056        44.0568 
 222   0.0000       1.638244        44.5789 
 223   0.0000       1.648423        44.8559 
 224   0.0000       1.654560        45.0229 
 225   0.0000       1.672194        45.5027 
 226   0.0000       1.684972        45.8504 
 227   0.0000       1.692104        46.0445 
 228   0.0000       1.711146        46.5627 
 229   0.0000       1.767429        48.0942 
 230   0.0000       1.801984        49.0345 
 231   0.0000       1.889204        51.4079 
 232   0.0000       1.901529        51.7432 
 233   0.0000       1.916862        52.1605 
 234   0.0000       1.941645        52.8349 
 235   0.0000       1.957698        53.2717 
 236   0.0000       1.989484        54.1366 
 237   0.0000       1.994093        54.2620 
 238   0.0000       2.011929        54.7474 
 239   0.0000       2.038226        55.4630 
 240   0.0000       2.074618        56.4532 
 241   0.0000       2.089416        56.8559 
 242   0.0000       2.105956        57.3060 
 243   0.0000       2.137036        58.1517 
 244   0.0000       2.143311        58.3225 
 245   0.0000       2.160620        58.7935 
 246   0.0000       2.181412        59.3592 
 247   0.0000       2.211660        60.1823 
 248   0.0000       2.264124        61.6099 
 249   0.0000       2.270571        61.7854 
 250   0.0000       2.294742        62.4431 
 251   0.0000       2.325304        63.2747 
 252   0.0000       2.349205        63.9251 
 253   0.0000       2.358749        64.1848 
 254   0.0000       2.369086        64.4661 
 255   0.0000       2.385947        64.9249 
 256   0.0000       2.396078        65.2006 
 257   0.0000       2.410592        65.5955 
 258   0.0000       2.411714        65.6261 
 259   0.0000       2.433828        66.2278 
 260   0.0000       2.449255        66.6476 
 261   0.0000       2.461027        66.9680 
 262   0.0000       2.471738        67.2594 
 263   0.0000       2.507335        68.2281 
 264   0.0000       2.519490        68.5588 
 265   0.0000       2.565320        69.8059 
 266   0.0000       2.578733        70.1709 
 267   0.0000       2.593648        70.5768 
 268   0.0000       2.596561        70.6560 
 269   0.0000       2.606602        70.9293 
 270   0.0000       2.620604        71.3103 
 271   0.0000       2.636323        71.7380 
 272   0.0000       2.645362        71.9840 
 273   0.0000       2.690502        73.2123 
 274   0.0000       2.701425        73.5095 
 275   0.0000       2.736770        74.4713 
 276   0.0000       2.764042        75.2134 
 277   0.0000       2.787554        75.8532 
 278   0.0000       2.795720        76.0754 
 279   0.0000       2.805562        76.3432 
 280   0.0000       2.811828        76.5137 
 281   0.0000       2.823329        76.8267 
 282   0.0000       2.854350        77.6708 
 283   0.0000       2.864499        77.9470 
 284   0.0000       2.891701        78.6872 
 285   0.0000       2.904548        79.0368 
 286   0.0000       2.943404        80.0941 
 287   0.0000       2.968702        80.7825 
 288   0.0000       2.994426        81.4825 
 289   0.0000       2.996561        81.5406 
 290   0.0000       3.048223        82.9464 
 291   0.0000       3.063151        83.3526 
 292   0.0000       3.133046        85.2545 
 293   0.0000       3.185735        86.6883 
 294   0.0000       3.205015        87.2129 
 295   0.0000       3.497273        95.1656 
 296   0.0000       3.602957        98.0414 
 297   0.0000       3.675143       100.0057 
 298   0.0000      13.331198       362.7603 
 299   0.0000      13.557502       368.9184 
 300   0.0000      13.639571       371.1516 
 301   0.0000      13.828461       376.2916 
 302   0.0000      13.871498       377.4627 
 303   0.0000      13.919898       378.7797 
 304   0.0000      14.112858       384.0304 
 305   0.0000      14.237436       387.4203 
 306   0.0000      14.260119       388.0376 
 307   0.0000      14.330297       389.9472 
 308   0.0000      14.431858       392.7108 
 309   0.0000      14.581173       396.7739 
 310   0.0000      14.638141       398.3241 
 311   0.0000      19.641045       534.4600 
 312   0.0000      51.726214      1407.5418 

                    ********************************
                    * MULLIKEN POPULATION ANALYSIS *
                    ********************************

-----------------------
MULLIKEN ATOMIC CHARGES
-----------------------
   0 Pd:    0.171340
   1 Cl:   -0.373048
   2 Cl:   -0.343285
   3 Cl:   -0.388499
   4 N :   -0.579727
   5 C :    0.050132
   6 C :   -0.332512
   7 C :   -0.157969
   8 C :    0.385219
   9 C :    0.046792
  10 H :    0.207926
  11 H :    0.273949
  12 H :    0.216627
  13 C :   -0.021195
  14 C :   -0.298293
  15 C :   -0.281210
  16 C :    0.148888
  17 H :    0.190464
  18 H :    0.191020
  19 C :   -0.186840
  20 C :   -0.326172
  21 C :   -0.328232
  22 C :   -0.190663
  23 H :    0.183873
  24 H :    0.187242
  25 H :    0.343381
  26 H :    0.210792
Sum of atomic charges:   -1.0000000

--------------------------------
MULLIKEN REDUCED ORBITAL CHARGES
--------------------------------
  0 Pds       :     2.507786  s :     2.507786
      pz      :     2.142258  p :     6.459837
      px      :     2.172089
      py      :     2.145489
      dz2     :     1.964032  d :     8.857560
      dxz     :     1.709236
      dyz     :     1.904895
      dx2y2   :     1.912805
      dxy     :     1.366592
      f0      :     0.000413  f :     0.003477
      f+1     :     0.000224
      f-1     :     0.000232
      f+2     :     0.000266
      f-2     :     0.000866
      f+3     :     0.000812
      f-3     :     0.000664
  1 Cls       :     5.934665  s :     5.934665
      pz      :     3.922998  p :    11.426633
      px      :     3.782714
      py      :     3.720921
      dz2     :     0.001522  d :     0.011751
      dxz     :     0.001636
      dyz     :     0.001990
      dx2y2   :     0.002655
      dxy     :     0.003948
  2 Cls       :     5.945505  s :     5.945505
      pz      :     3.757186  p :    11.363157
      px      :     3.955374
      py      :     3.650597
      dz2     :     0.001193  d :     0.034624
      dxz     :     0.001490
      dyz     :     0.020618
      dx2y2   :     0.008648
      dxy     :     0.002674
  3 Cls       :     5.942622  s :     5.942622
      pz      :     3.929935  p :    11.431493
      px      :     3.738044
      py      :     3.763514
      dz2     :     0.001890  d :     0.014384
      dxz     :     0.002420
      dyz     :     0.001565
      dx2y2   :     0.003645
      dxy     :     0.004864
  4 N s       :     3.651617  s :     3.651617
      pz      :     1.180891  p :     3.882179
      px      :     1.261151
      py      :     1.440138
      dz2     :     0.010580  d :     0.045931
      dxz     :     0.009176
      dyz     :     0.011210
      dx2y2   :     0.007750
      dxy     :     0.007216
  5 C s       :     3.139175  s :     3.139175
      pz      :     0.900610  p :     2.750894
      px      :     0.941667
      py      :     0.908617
      dz2     :     0.014117  d :     0.059799
      dxz     :     0.012743
      dyz     :     0.016357
      dx2y2   :     0.007360
      dxy     :     0.009222
  6 C s       :     3.279140  s :     3.279140
      pz      :     1.079304  p :     3.014565
      px      :     0.988085
      py      :     0.947175
      dz2     :     0.008995  d :     0.038807
      dxz     :     0.006230
      dyz     :     0.009869
      dx2y2   :     0.006965
      dxy     :     0.006747
  7 C s       :     3.256877  s :     3.256877
      pz      :     0.930612  p :     2.859702
      px      :     0.947669
      py      :     0.981421
      dz2     :     0.010743  d :     0.041391
      dxz     :     0.007303
      dyz     :     0.009663
      dx2y2   :     0.007054
      dxy     :     0.006628
  8 C s       :     3.147094  s :     3.147094
      pz      :     0.820025  p :     2.404363
      px      :     0.818655
      py      :     0.765683
      dz2     :     0.013270  d :     0.063324
      dxz     :     0.012367
      dyz     :     0.013972
      dx2y2   :     0.011474
      dxy     :     0.012240
  9 C s       :     3.213712  s :     3.213712
      pz      :     0.874086  p :     2.693854
      px      :     0.970058
      py      :     0.849709
      dz2     :     0.010736  d :     0.045643
      dxz     :     0.007948
      dyz     :     0.011214
      dx2y2   :     0.008147
      dxy     :     0.007598
 10 H s       :     0.792074  s :     0.792074
 11 H s       :     0.726051  s :     0.726051
 12 H s       :     0.783373  s :     0.783373
 13 C s       :     3.254173  s :     3.254173
      pz      :     0.919438  p :     2.721107
      px      :     0.965751
      py      :     0.835918
      dz2     :     0.009013  d :     0.045915
      dxz     :     0.005910
      dyz     :     0.014712
      dx2y2   :     0.007064
      dxy     :     0.009217
 14 C s       :     3.277695  s :     3.277695
      pz      :     0.962294  p :     2.980006
      px      :     1.006675
      py      :     1.011037
      dz2     :     0.010005  d :     0.040592
      dxz     :     0.007934
      dyz     :     0.009965
      dx2y2   :     0.006456
      dxy     :     0.006232
 15 C s       :     3.288935  s :     3.288935
      pz      :     0.988530  p :     2.950902
      px      :     0.994127
      py      :     0.968245
      dz2     :     0.008505  d :     0.041373
      dxz     :     0.008574
      dyz     :     0.010874
      dx2y2   :     0.005641
      dxy     :     0.007779
 16 C s       :     3.209942  s :     3.209942
      pz      :     0.866210  p :     2.594425
      px      :     0.924177
      py      :     0.804038
      dz2     :     0.011192  d :     0.046745
      dxz     :     0.007952
      dyz     :     0.011495
      dx2y2   :     0.008106
      dxy     :     0.008000
 17 H s       :     0.809536  s :     0.809536
 18 H s       :     0.808980  s :     0.808980
 19 C s       :     3.366766  s :     3.366766
      pz      :     0.981495  p :     2.784007
      px      :     0.919625
      py      :     0.882887
      dz2     :     0.010398  d :     0.036067
      dxz     :     0.005687
      dyz     :     0.005946
      dx2y2   :     0.007595
      dxy     :     0.006442
 20 C s       :     3.285835  s :     3.285835
      pz      :     0.986076  p :     3.000387
      px      :     1.034277
      py      :     0.980035
      dz2     :     0.007593  d :     0.039951
      dxz     :     0.007260
      dyz     :     0.010992
      dx2y2   :     0.005702
      dxy     :     0.008403
 21 C s       :     3.291508  s :     3.291508
      pz      :     0.962727  p :     2.996384
      px      :     0.969816
      py      :     1.063840
      dz2     :     0.008666  d :     0.040340
      dxz     :     0.007435
      dyz     :     0.011637
      dx2y2   :     0.007700
      dxy     :     0.004902
 22 C s       :     3.237998  s :     3.237998
      pz      :     0.999598  p :     2.911946
      px      :     0.975331
      py      :     0.937017
      dz2     :     0.008217  d :     0.040719
      dxz     :     0.005741
      dyz     :     0.010929
      dx2y2   :     0.007982
      dxy     :     0.007851
 23 H s       :     0.816127  s :     0.816127
 24 H s       :     0.812758  s :     0.812758
 25 H s       :     0.656619  s :     0.656619
 26 H s       :     0.789208  s :     0.789208


                     *******************************
                     * LOEWDIN POPULATION ANALYSIS *
                     *******************************

----------------------
LOEWDIN ATOMIC CHARGES
----------------------
   0 Pd:   -0.853890
   1 Cl:   -0.129282
   2 Cl:   -0.123421
   3 Cl:   -0.110179
   4 N :    0.040696
   5 C :    0.009236
   6 C :   -0.171511
   7 C :   -0.086859
   8 C :    0.098924
   9 C :   -0.054307
  10 H :    0.133908
  11 H :    0.162777
  12 H :    0.139367
  13 C :   -0.035901
  14 C :   -0.146660
  15 C :   -0.115597
  16 C :   -0.036421
  17 H :    0.128464
  18 H :    0.128709
  19 C :   -0.123276
  20 C :   -0.157240
  21 C :   -0.140878
  22 C :   -0.134626
  23 H :    0.122077
  24 H :    0.122765
  25 H :    0.200502
  26 H :    0.132622

-------------------------------
LOEWDIN REDUCED ORBITAL CHARGES
-------------------------------
  0 Pds       :     2.558742  s :     2.558742
      pz      :     2.243573  p :     6.980733
      px      :     2.396168
      py      :     2.340993
      dz2     :     2.009913  d :     9.309563
      dxz     :     1.804630
      dyz     :     1.968172
      dx2y2   :     2.012058
      dxy     :     1.514789
      f0      :     0.000606  f :     0.004853
      f+1     :     0.000279
      f-1     :     0.000292
      f+2     :     0.000343
      f-2     :     0.001270
      f+3     :     0.001148
      f-3     :     0.000914
  1 Cls       :     5.775786  s :     5.775786
      pz      :     3.885666  p :    11.341304
      px      :     3.755514
      py      :     3.700125
      dz2     :     0.001477  d :     0.012192
      dxz     :     0.001725
      dyz     :     0.002225
      dx2y2   :     0.002856
      dxy     :     0.003909
  2 Cls       :     5.770878  s :     5.770878
      pz      :     3.750714  p :    11.317062
      px      :     3.940777
      py      :     3.625570
      dz2     :     0.001219  d :     0.035482
      dxz     :     0.001495
      dyz     :     0.021140
      dx2y2   :     0.008854
      dxy     :     0.002774
  3 Cls       :     5.770098  s :     5.770098
      pz      :     3.889587  p :    11.324282
      px      :     3.695439
      py      :     3.739256
      dz2     :     0.002051  d :     0.015799
      dxz     :     0.002630
      dyz     :     0.001767
      dx2y2   :     0.004104
      dxy     :     0.005247
  4 N s       :     3.090787  s :     3.090787
      pz      :     1.191736  p :     3.763335
      px      :     1.220302
      py      :     1.351298
      dz2     :     0.025795  d :     0.105182
      dxz     :     0.023511
      dyz     :     0.026080
      dx2y2   :     0.014662
      dxy     :     0.015135
  5 C s       :     2.865980  s :     2.865980
      pz      :     0.989933  p :     2.992043
      px      :     0.975207
      py      :     1.026903
      dz2     :     0.031116  d :     0.132742
      dxz     :     0.026391
      dyz     :     0.039739
      dx2y2   :     0.017310
      dxy     :     0.018185
  6 C s       :     2.888152  s :     2.888152
      pz      :     1.070910  p :     3.193477
      px      :     1.051552
      py      :     1.071015
      dz2     :     0.019754  d :     0.089883
      dxz     :     0.013558
      dyz     :     0.023187
      dx2y2   :     0.015953
      dxy     :     0.017430
  7 C s       :     2.887142  s :     2.887142
      pz      :     1.058282  p :     3.106246
      px      :     0.996925
      py      :     1.051038
      dz2     :     0.025424  d :     0.093471
      dxz     :     0.017927
      dyz     :     0.022911
      dx2y2   :     0.013743
      dxy     :     0.013465
  8 C s       :     2.812306  s :     2.812306
      pz      :     0.986961  p :     2.940239
      px      :     0.936445
      py      :     1.016832
      dz2     :     0.031191  d :     0.148531
      dxz     :     0.028504
      dyz     :     0.033120
      dx2y2   :     0.025183
      dxy     :     0.030534
  9 C s       :     2.830194  s :     2.830194
      pz      :     1.045086  p :     3.111420
      px      :     1.010243
      py      :     1.056090
      dz2     :     0.026387  d :     0.112693
      dxz     :     0.018396
      dyz     :     0.030264
      dx2y2   :     0.019076
      dxy     :     0.018571
 10 H s       :     0.866092  s :     0.866092
 11 H s       :     0.837223  s :     0.837223
 12 H s       :     0.860633  s :     0.860633
 13 C s       :     2.833696  s :     2.833696
      pz      :     1.014228  p :     3.090372
      px      :     1.006106
      py      :     1.070038
      dz2     :     0.022615  d :     0.111833
      dxz     :     0.014126
      dyz     :     0.036560
      dx2y2   :     0.016299
      dxy     :     0.022233
 14 C s       :     2.880091  s :     2.880091
      pz      :     1.076348  p :     3.173618
      px      :     1.037630
      py      :     1.059640
      dz2     :     0.024084  d :     0.092951
      dxz     :     0.019054
      dyz     :     0.024583
      dx2y2   :     0.013150
      dxy     :     0.012080
 15 C s       :     2.884794  s :     2.884794
      pz      :     1.070607  p :     3.136959
      px      :     1.010165
      py      :     1.056187
      dz2     :     0.020320  d :     0.093844
      dxz     :     0.017103
      dyz     :     0.027249
      dx2y2   :     0.013289
      dxy     :     0.015884
 16 C s       :     2.832356  s :     2.832356
      pz      :     1.053399  p :     3.089734
      px      :     0.998723
      py      :     1.037613
      dz2     :     0.027910  d :     0.114331
      dxz     :     0.018756
      dyz     :     0.029468
      dx2y2   :     0.018833
      dxy     :     0.019363
 17 H s       :     0.871536  s :     0.871536
 18 H s       :     0.871291  s :     0.871291
 19 C s       :     2.971412  s :     2.971412
      pz      :     1.081555  p :     3.072666
      px      :     0.933007
      py      :     1.058104
      dz2     :     0.022235  d :     0.079197
      dxz     :     0.011659
      dyz     :     0.015597
      dx2y2   :     0.016392
      dxy     :     0.013314
 20 C s       :     2.883792  s :     2.883792
      pz      :     1.057248  p :     3.182132
      px      :     1.043519
      py      :     1.081364
      dz2     :     0.018343  d :     0.091317
      dxz     :     0.014265
      dyz     :     0.027267
      dx2y2   :     0.013713
      dxy     :     0.017728
 21 C s       :     2.897730  s :     2.897730
      pz      :     1.075082  p :     3.152930
      px      :     1.014384
      py      :     1.063464
      dz2     :     0.020670  d :     0.090218
      dxz     :     0.018151
      dyz     :     0.026661
      dx2y2   :     0.014654
      dxy     :     0.010081
 22 C s       :     2.896178  s :     2.896178
      pz      :     1.049197  p :     3.145965
      px      :     1.018200
      py      :     1.078569
      dz2     :     0.017993  d :     0.092482
      dxz     :     0.011404
      dyz     :     0.025317
      dx2y2   :     0.018733
      dxy     :     0.019035
 23 H s       :     0.877923  s :     0.877923
 24 H s       :     0.877235  s :     0.877235
 25 H s       :     0.799498  s :     0.799498
 26 H s       :     0.867378  s :     0.867378


                      *****************************
                      * MAYER POPULATION ANALYSIS *
                      *****************************

  NA   - Mulliken gross atomic population
  ZA   - Total nuclear charge
  QA   - Mulliken gross atomic charge
  VA   - Mayer's total valence
  BVA  - Mayer's bonded valence
  FA   - Mayer's free valence

  ATOM       NA         ZA         QA         VA         BVA        FA
  0 Pd    17.8287    18.0000     0.1713     2.8205     2.8205    -0.0000
  1 Cl    17.3730    17.0000    -0.3730     1.0296     1.0296    -0.0000
  2 Cl    17.3433    17.0000    -0.3433     0.9094     0.9094     0.0000
  3 Cl    17.3885    17.0000    -0.3885     1.0112     1.0112    -0.0000
  4 N      7.5797     7.0000    -0.5797     3.2438     3.2438    -0.0000
  5 C      5.9499     6.0000     0.0501     3.7912     3.7912    -0.0000
  6 C      6.3325     6.0000    -0.3325     3.8195     3.8195     0.0000
  7 C      6.1580     6.0000    -0.1580     3.7127     3.7127     0.0000
  8 C      5.6148     6.0000     0.3852     3.5178     3.5178    -0.0000
  9 C      5.9532     6.0000     0.0468     3.7140     3.7140    -0.0000
 10 H      0.7921     1.0000     0.2079     0.9163     0.9163     0.0000
 11 H      0.7261     1.0000     0.2739     0.8876     0.8876     0.0000
 12 H      0.7834     1.0000     0.2166     0.9202     0.9202    -0.0000
 13 C      6.0212     6.0000    -0.0212     3.7241     3.7241     0.0000
 14 C      6.2983     6.0000    -0.2983     3.8150     3.8150     0.0000
 15 C      6.2812     6.0000    -0.2812     3.8002     3.8002     0.0000
 16 C      5.8511     6.0000     0.1489     3.6944     3.6944     0.0000
 17 H      0.8095     1.0000     0.1905     0.9230     0.9230     0.0000
 18 H      0.8090     1.0000     0.1910     0.9221     0.9221    -0.0000
 19 C      6.1868     6.0000    -0.1868     3.4261     3.4261     0.0000
 20 C      6.3262     6.0000    -0.3262     3.8176     3.8176    -0.0000
 21 C      6.3282     6.0000    -0.3282     3.8951     3.8951    -0.0000
 22 C      6.1907     6.0000    -0.1907     3.8028     3.8028    -0.0000
 23 H      0.8161     1.0000     0.1839     0.9244     0.9244    -0.0000
 24 H      0.8128     1.0000     0.1872     0.9195     0.9195    -0.0000
 25 H      0.6566     1.0000     0.3434     0.8828     0.8828    -0.0000
 26 H      0.7892     1.0000     0.2108     0.9160     0.9160    -0.0000

  Mayer bond orders larger than 0.100000
B(  0-Pd,  1-Cl) :   0.8993 B(  0-Pd,  2-Cl) :   0.1176 B(  0-Pd,  3-Cl) :   0.8351 
B(  0-Pd,  4-N ) :   0.4228 B(  0-Pd, 19-C ) :   0.4433 B(  2-Cl, 25-H ) :   0.7436 
B(  4-N ,  5-C ) :   1.4544 B(  4-N ,  8-C ) :   1.1378 B(  5-C ,  6-C ) :   1.3317 
B(  5-C , 11-H ) :   0.8948 B(  6-C ,  7-C ) :   1.4454 B(  6-C , 12-H ) :   0.9203 
B(  7-C ,  9-C ) :   1.2908 B(  7-C , 10-H ) :   0.9288 B(  8-C ,  9-C ) :   1.2220 
B(  8-C , 13-C ) :   1.1425 B(  9-C , 14-C ) :   1.1635 B( 13-C , 16-C ) :   1.2587 
B( 13-C , 19-C ) :   1.2463 B( 14-C , 15-C ) :   1.6433 B( 14-C , 17-H ) :   0.9302 
B( 15-C , 16-C ) :   1.1534 B( 15-C , 18-H ) :   0.9285 B( 16-C , 20-C ) :   1.2933 
B( 19-C , 21-C ) :   1.4702 B( 20-C , 22-C ) :   1.4792 B( 20-C , 23-H ) :   0.9307 
B( 21-C , 22-C ) :   1.3554 B( 21-C , 26-H ) :   0.9176 B( 22-C , 24-H ) :   0.9245 



------------------
HIRSHFELD ANALYSIS
------------------

Total integrated alpha density =     81.999723371
Total integrated beta density  =     81.999723371

  ATOM     CHARGE      SPIN    
   0 Pd   0.471180    0.000000
   1 Cl  -0.504280    0.000000
   2 Cl  -0.219811    0.000000
   3 Cl  -0.489089    0.000000
   4 N   -0.125267    0.000000
   5 C    0.049449    0.000000
   6 C   -0.056368    0.000000
   7 C   -0.024492    0.000000
   8 C    0.064635    0.000000
   9 C   -0.015418    0.000000
  10 H    0.044866    0.000000
  11 H    0.056111    0.000000
  12 H    0.045334    0.000000
  13 C   -0.034385    0.000000
  14 C   -0.062598    0.000000
  15 C   -0.045969    0.000000
  16 C   -0.015135    0.000000
  17 H    0.036062    0.000000
  18 H    0.035988    0.000000
  19 C   -0.159615    0.000000
  20 C   -0.069448    0.000000
  21 C   -0.061387    0.000000
  22 C   -0.052936    0.000000
  23 H    0.029963    0.000000
  24 H    0.030979    0.000000
  25 H    0.041397    0.000000
  26 H    0.030787    0.000000

  TOTAL  -0.999447    0.000000

-------
TIMINGS
-------

Total SCF time: 0 days 0 hours 7 min 20 sec 

Total time                  ....     440.239 sec
Sum of individual times     ....     439.755 sec  ( 99.9%)

Fock matrix formation       ....     433.176 sec  ( 98.4%)
  Split-RI-J                ....      43.612 sec  ( 10.1% of F)
  Chain of spheres X        ....     348.230 sec  ( 80.4% of F)
  XC integration            ....      41.199 sec  (  9.5% of F)
    Basis function eval.    ....      15.931 sec  ( 38.7% of XC)
    Density eval.           ....      10.438 sec  ( 25.3% of XC)
    XC-Functional eval.     ....       3.176 sec  (  7.7% of XC)
    XC-Potential eval.      ....      10.434 sec  ( 25.3% of XC)
Diagonalization             ....       0.544 sec  (  0.1%)
Density matrix formation    ....       0.083 sec  (  0.0%)
Population analysis         ....       1.093 sec  (  0.2%)
Initial guess               ....       0.049 sec  (  0.0%)
Orbital Transformation      ....       0.000 sec  (  0.0%)
Orbital Orthonormalization  ....       0.000 sec  (  0.0%)
DIIS solution               ....       0.214 sec  (  0.0%)
Grid generation             ....       4.596 sec  (  1.0%)

Maximum memory used throughout the entire SCF-calculation: 147.4 MB


-------------------------------------------------------------------------------
                          DFT DISPERSION CORRECTION                            
                                                                               
                              DFTD3 V3.1  Rev 1                                
                          USING Becke-Johnson damping                          
-------------------------------------------------------------------------------
The PBEh-3c composite method is recognized
Using three-body term ABC
Active option DFTDOPT                   ...         4   

molecular C6(AA) [au] = 16717.856585 


            DFT-D V3
 parameters
 s6 scaling factor         :     1.0000 
 a1 scaling factor         :     0.4860 
 s8 scaling factor         :     0.0000 
 a2 scaling factor         :     4.5000 
 Damping factor alpha9(ATM):    16.0000 
 ad hoc parameters k1-k3   :    16.0000     1.3333    -4.0000 

 Edisp/kcal,au: -15.388919278672  -0.024523801270 
 E6   /kcal   : -15.463652058 
 E8   /kcal   :  -0.000000000 
 E6(ABC)      :   0.074732779 
 % E8         :   0.000000000 
 % E6(ABC)    :  -0.485627208 

-------------------------   ----------------
Dispersion correction           -0.024523801
-------------------------   ----------------

 ** NOTE ** -> element pd will be treated as ni
------------------   -----------------
gCP correction             0.042981485
------------------   -----------------

-------------------------   --------------------
FINAL SINGLE POINT ENERGY     -2061.436363373897
-------------------------   --------------------

------------------------------------------------------------------------------
                         ORCA SCF GRADIENT CALCULATION
------------------------------------------------------------------------------

 ... reading COSX grid (gridx3)
Gradient of the Kohn-Sham DFT energy:
Kohn-Sham wavefunction type      ... RKS
Hartree-Fock exchange scaling    ...    0.420
Number of operators              ...    1
Number of atoms                  ...   27
Basis set dimensions             ...  313
Integral neglect threshold       ... 2.5e-11
Integral primitive cutoff        ... 2.5e-12
SHARK Integral package           ... ON

Nuc. rep. gradient       (SHARK) ... done (  0.0 sec)
HCore & Overlap gradient (SHARK) ... done (  1.0 sec)
ECP gradient             (SHARK) ... done (  1.8 sec)
RI-J gradient            (SHARK) ... done (  6.3 sec)
COSX-gradient                    ... done ( 50.3 sec)
Exchange-correlation gradient    ... done
Dispersion correction            ... done
gCP correction                   ... done

------------------
CARTESIAN GRADIENT
------------------

   1   Pd  :    0.001188330   -0.002546363    0.014089474
   2   Cl  :   -0.009723521   -0.005585643    0.007724401
   3   Cl  :    0.005258519    0.096300579   -0.072653323
   4   Cl  :    0.005962216   -0.003515087   -0.010058797
   5   N   :   -0.005920980   -0.005994140    0.005384260
   6   C   :    0.003137644    0.004302427    0.000116948
   7   C   :   -0.000349366   -0.002833458   -0.003185212
   8   C   :   -0.001108691   -0.001951577   -0.000387482
   9   C   :   -0.002648652   -0.003036528   -0.002032569
  10   C   :    0.001480599    0.001285990   -0.003803775
  11   H   :    0.002126001    0.004194552    0.000415878
  12   H   :    0.001436418    0.000186828    0.004790139
  13   H   :   -0.000358666    0.003381541    0.002935523
  14   C   :    0.003245655   -0.005661919   -0.001725578
  15   C   :   -0.001676514   -0.002683574   -0.002457460
  16   C   :   -0.004234409   -0.000666526    0.001831240
  17   C   :   -0.001943143    0.001509541   -0.000347644
  18   H   :    0.001882377    0.003223571    0.001643464
  19   H   :    0.000466809    0.000443695    0.001550765
  20   C   :    0.008176991   -0.008540291    0.011091621
  21   C   :   -0.001915830    0.001106223   -0.002838916
  22   C   :    0.005053705   -0.001533234   -0.006091457
  23   C   :   -0.000495078    0.003281734   -0.003768143
  24   H   :    0.004409855    0.003647984   -0.000169780
  25   H   :    0.003576128    0.002595357   -0.001137002
  26   H   :   -0.018813626   -0.078592204    0.065381113
  27   H   :    0.001750298   -0.002082565   -0.005992624

Difference to translation invariance:
           :   -0.0000369285    0.0002369137    0.0003050650

Difference to rotation invariance:
           :   -0.0077753908    0.0016589158   -0.0003962638

Norm of the cartesian gradient     ...    0.1635730602
RMS gradient                       ...    0.0181747845
MAX gradient                       ...    0.0963005794

-------
TIMINGS
-------

Total SCF gradient time            ...       69.549 sec

One electron gradient       ....       2.756 sec  (  4.0%)
RI-J Coulomb gradient       ....       6.268 sec  (  9.0%)
COSX gradient               ....      50.288 sec  ( 72.3%)
XC gradient                 ....       8.690 sec  ( 12.5%)

Maximum memory used throughout the entire SCFGRAD-calculation: 116.6 MB

                            ***************************************
                            *     ORCA property calculations      *
                            ***************************************

                                    ---------------------
                                    Active property flags
                                    ---------------------
   (+) Dipole Moment


------------------------------------------------------------------------------
                       ORCA ELECTRIC PROPERTIES CALCULATION
------------------------------------------------------------------------------

Dipole Moment Calculation                       ... on
Quadrupole Moment Calculation                   ... off
Polarizability Calculation                      ... off
GBWName                                         ... 5_7_orca.gbw
Electron density                                ... 5_7_orca.scfp
The origin for moment calculation is the CENTER OF MASS  = (-2.128401, -1.733719  0.476120)

-------------
DIPOLE MOMENT
-------------
                                X             Y             Z
Electronic contribution:    -80.26215     -56.70744      20.24550
Nuclear contribution   :     83.51047      59.50137     -19.43193
                        -----------------------------------------
Total Dipole Moment    :      3.24833       2.79393       0.81357
                        -----------------------------------------
Magnitude (a.u.)       :      4.36115
Magnitude (Debye)      :     11.08515



--------------------
Rotational spectrum 
--------------------
 
Rotational constants in cm-1:     0.011995     0.007960     0.005993 
Rotational constants in MHz :   359.601727   238.633288   179.654139 

 Dipole components along the rotational axes: 
x,y,z [a.u.] :     4.109410     0.633880     1.315499 
x,y,z [Debye]:    10.445291     1.611195     3.343732 

 

Timings for individual modules:

Sum of individual times         ...      510.774 sec (=   8.513 min)
GTO integral calculation        ...        0.921 sec (=   0.015 min)   0.2 %
SCF iterations                  ...      440.265 sec (=   7.338 min)  86.2 %
SCF Gradient evaluation         ...       69.587 sec (=   1.160 min)  13.6 %
                             ****ORCA TERMINATED NORMALLY****
TOTAL RUN TIME: 0 days 0 hours 8 minutes 31 seconds 361 msec
