
                                 *****************
                                 * O   R   C   A *
                                 *****************

                                            #,                                       
                                            ###                                      
                                            ####                                     
                                            #####                                    
                                            ######                                   
                                           ########,                                 
                                     ,,################,,,,,                         
                               ,,#################################,,                 
                          ,,##########################################,,             
                       ,#########################################, ''#####,          
                    ,#############################################,,   '####,        
                  ,##################################################,,,,####,       
                ,###########''''           ''''###############################       
              ,#####''   ,,,,##########,,,,          '''####'''          '####       
            ,##' ,,,,###########################,,,                        '##       
           ' ,,###''''                  '''############,,,                           
         ,,##''                                '''############,,,,        ,,,,,,###''
      ,#''                                            '''#######################'''  
     '                                                          ''''####''''         
             ,#######,   #######,   ,#######,      ##                                
            ,#'     '#,  ##    ##  ,#'     '#,    #''#        ######   ,####,        
            ##       ##  ##   ,#'  ##            #'  '#       #        #'  '#        
            ##       ##  #######   ##           ,######,      #####,   #    #        
            '#,     ,#'  ##    ##  '#,     ,#' ,#      #,         ##   #,  ,#        
             '#######'   ##     ##  '#######'  #'      '#     #####' # '####'        



                  #######################################################
                  #                        -***-                        #
                  #          Department of theory and spectroscopy      #
                  #    Directorship and core code : Frank Neese         #
                  #        Max Planck Institute fuer Kohlenforschung    #
                  #                Kaiser Wilhelm Platz 1               #
                  #                 D-45470 Muelheim/Ruhr               #
                  #                      Germany                        #
                  #                                                     #
                  #                  All rights reserved                #
                  #                        -***-                        #
                  #######################################################


                         Program Version 5.0.4 -  RELEASE  -


 With contributions from (in alphabetic order):
   Daniel Aravena         : Magnetic Suceptibility
   Michael Atanasov       : Ab Initio Ligand Field Theory (pilot matlab implementation)
   Alexander A. Auer      : GIAO ZORA, VPT2 properties, NMR spectrum
   Ute Becker             : Parallelization
   Giovanni Bistoni       : ED, misc. LED, open-shell LED, HFLD
   Martin Brehm           : Molecular dynamics
   Dmytro Bykov           : SCF Hessian
   Vijay G. Chilkuri      : MRCI spin determinant printing, contributions to CSF-ICE
   Dipayan Datta          : RHF DLPNO-CCSD density
   Achintya Kumar Dutta   : EOM-CC, STEOM-CC
   Dmitry Ganyushin       : Spin-Orbit,Spin-Spin,Magnetic field MRCI
   Miquel Garcia          : C-PCM and meta-GGA Hessian, CC/C-PCM, Gaussian charge scheme
   Yang Guo               : DLPNO-NEVPT2, F12-NEVPT2, CIM, IAO-localization
   Andreas Hansen         : Spin unrestricted coupled pair/coupled cluster methods
   Benjamin Helmich-Paris : MC-RPA, TRAH-SCF, COSX integrals
   Lee Huntington         : MR-EOM, pCC
   Robert Izsak           : Overlap fitted RIJCOSX, COSX-SCS-MP3, EOM
   Marcus Kettner         : VPT2
   Christian Kollmar      : KDIIS, OOCD, Brueckner-CCSD(T), CCSD density, CASPT2, CASPT2-K
   Simone Kossmann        : Meta GGA functionals, TD-DFT gradient, OOMP2, MP2 Hessian
   Martin Krupicka        : Initial AUTO-CI
   Lucas Lang             : DCDCAS
   Marvin Lechner         : AUTO-CI (C++ implementation), FIC-MRCC
   Dagmar Lenk            : GEPOL surface, SMD
   Dimitrios Liakos       : Extrapolation schemes; Compound Job, initial MDCI parallelization
   Dimitrios Manganas     : Further ROCIS development; embedding schemes
   Dimitrios Pantazis     : SARC Basis sets
   Anastasios Papadopoulos: AUTO-CI, single reference methods and gradients
   Taras Petrenko         : DFT Hessian,TD-DFT gradient, ASA, ECA, R-Raman, ABS, FL, XAS/XES, NRVS
   Peter Pinski           : DLPNO-MP2, DLPNO-MP2 Gradient
   Christoph Reimann      : Effective Core Potentials
   Marius Retegan         : Local ZFS, SOC
   Christoph Riplinger    : Optimizer, TS searches, QM/MM, DLPNO-CCSD(T), (RO)-DLPNO pert. Triples
   Tobias Risthaus        : Range-separated hybrids, TD-DFT gradient, RPA, STAB
   Michael Roemelt        : Original ROCIS implementation
   Masaaki Saitow         : Open-shell DLPNO-CCSD energy and density
   Barbara Sandhoefer     : DKH picture change effects
   Avijit Sen             : IP-ROCIS
   Kantharuban Sivalingam : CASSCF convergence, NEVPT2, FIC-MRCI
   Bernardo de Souza      : ESD, SOC TD-DFT
   Georgi Stoychev        : AutoAux, RI-MP2 NMR, DLPNO-MP2 response
   Willem Van den Heuvel  : Paramagnetic NMR
   Boris Wezisla          : Elementary symmetry handling
   Frank Wennmohs         : Technical directorship


 We gratefully acknowledge several colleagues who have allowed us to
 interface, adapt or use parts of their codes:
   Stefan Grimme, W. Hujo, H. Kruse, P. Pracht,  : VdW corrections, initial TS optimization,
                  C. Bannwarth, S. Ehlert          DFT functionals, gCP, sTDA/sTD-DF
   Ed Valeev, F. Pavosevic, A. Kumar             : LibInt (2-el integral package), F12 methods
   Garnet Chan, S. Sharma, J. Yang, R. Olivares  : DMRG
   Ulf Ekstrom                                   : XCFun DFT Library
   Mihaly Kallay                                 : mrcc  (arbitrary order and MRCC methods)
   Jiri Pittner, Ondrej Demel                    : Mk-CCSD
   Frank Weinhold                                : gennbo (NPA and NBO analysis)
   Christopher J. Cramer and Donald G. Truhlar   : smd solvation model
   Lars Goerigk                                  : TD-DFT with DH, B97 family of functionals
   V. Asgeirsson, H. Jonsson                     : NEB implementation
   FAccTs GmbH                                   : IRC, NEB, NEB-TS, DLPNO-Multilevel, CI-OPT
                                                   MM, QMMM, 2- and 3-layer-ONIOM, Crystal-QMMM,
                                                   LR-CPCM, SF, NACMEs, symmetry and pop. for TD-DFT,
                                                   nearIR, NL-DFT gradient (VV10), updates on ESD,
                                                   ML-optimized integration grids
   S Lehtola, MJT Oliveira, MAL Marques          : LibXC Library
   Liviu Ungur et al                             : ANISO software


 Your calculation uses the libint2 library for the computation of 2-el integrals
 For citations please refer to: http://libint.valeyev.net

 Your ORCA version has been built with support for libXC version: 5.1.0
 For citations please refer to: https://tddft.org/programs/libxc/

 This ORCA versions uses:
   CBLAS   interface :  Fast vector & matrix operations
   LAPACKE interface :  Fast linear algebra routines
   SCALAPACK package :  Parallel linear algebra routines
   Shared memory     :  Shared parallel matrices
   BLAS/LAPACK       :  OpenBLAS 0.3.15  USE64BITINT DYNAMIC_ARCH NO_AFFINITY SkylakeX SINGLE_THREADED
        Core in use  :  SkylakeX
   Copyright (c) 2011-2014, The OpenBLAS Project




***************************************
The coordinates will be read from file: cineb-10-peak.xyz
***************************************




################################################################################


                                COMPOUND JOB MainJOB 
Basename: reaction-5-cineb10_optts_Compound_0

################################################################################

================================================================================
                                       INPUT FILE
================================================================================
NAME = reaction-5-cineb10_optts_Compound_0.inp
|  1> %pal nprocs 8 end 
|  2>   
|  3>  *xyzfile 1 1 cineb-10-peak.xyz 
|  4>   
|  5> 
|  6>                          ****END OF INPUT****
================================================================================


***************************************
The coordinates will be read from file: cineb-10-peak.xyz
***************************************


================================================================================

----- Orbital basis set information -----
Your calculation utilizes the basis: def2-SVP
   F. Weigend and R. Ahlrichs, Phys. Chem. Chem. Phys. 7, 3297 (2005).



################################################################################


                                COMPOUND JOB  1 
Basename: reaction-5-cineb10_optts_Compound_1
NOTE: please remember that MaxCore and PAL settings will be ignored.

################################################################################

================================================================================
                                       INPUT FILE
================================================================================
NAME = reaction-5-cineb10_optts_Compound_1.inp
|  1>   
|  2>    
|  3>   ! PBEh-3c OptTS Freq pal8 
|  4>    
|  5>   %geom 
|  6>    calc_hess true 
|  7>    recalc_hess 20 
|  8>    maxiter 600 
|  9>   end  
| 10>    
| 11> 
| 12>                          ****END OF INPUT****
================================================================================
Your calculation utilizes the geometrical counterpoise correction gCP
Please cite in your paper:
H.Kruse, S. Grimme J.Chem.Phys., 136, (2012), 154101 
   

Your calculation utilizes the atom-pairwise dispersion correction
with the Becke-Johnson damping scheme (D3BJ)
Cite in your paper:
S.Grimme, S.Ehrlich, L.Goerigk, J Comput Chem, (2011), 32, 1456–1465 
S.Grimme, J.Antony, S.Ehrlich and H.Krieg, J.Chem.Phys., 132, (2010), 154104 
   

Your calculation employs the composite approach PBEh-3c.
Please cite in your paper:
S. Grimme, J. G. Brandenburg, C. Bannwarth, A. Hansen J.Chem.Phys., 143, (2015), 054107 
   

================================================================================

----- Orbital basis set information -----
Your calculation utilizes the basis: def2-mSVP

----- AuxJ basis set information -----
Your calculation utilizes the auxiliary basis: def2/J
   F. Weigend, Phys. Chem. Chem. Phys. 8, 1057 (2006).

================================================================================
                                        WARNINGS
                       Please study these warnings very carefully!
================================================================================


WARNING: Geometry Optimization
  ===> : Switching off AutoStart
         For restart on a previous wavefunction, please use MOREAD

INFO   : the flag for use of the SHARK integral package has been found!


                       *****************************
                       * Geometry Optimization Run *
                       *****************************

Geometry optimization settings:
Update method            Update   .... Bofill
Choice of coordinates    CoordSys .... Z-matrix Internals
Initial Hessian          InHess   .... Almoef's Model

Convergence Tolerances:
Energy Change            TolE     ....  5.0000e-06 Eh
Max. Gradient            TolMAXG  ....  3.0000e-04 Eh/bohr
RMS Gradient             TolRMSG  ....  1.0000e-04 Eh/bohr
Max. Displacement        TolMAXD  ....  4.0000e-03 bohr
RMS Displacement         TolRMSD  ....  2.0000e-03 bohr
Strict Convergence                ....  False
------------------------------------------------------------------------------
                        ORCA OPTIMIZATION COORDINATE SETUP
------------------------------------------------------------------------------

The optimization will be done in new redundant internal coordinates
Making redundant internal coordinates   ...  (new redundants) done
Following TS mode number                ...     0
Evaluating the initial hessian          ...  (Is done on the fly) done
Evaluating the coordinates              ...  done
Calculating the B-matrix                .... done
Calculating the G-matrix                .... done
Diagonalizing the G-matrix              .... done
Small eigenvalue found = 1.411e-02
Small eigenvalue found = 1.999e-02
The first mode is                       ....   42
The number of degrees of freedom        ....   57

    -----------------------------------------------------------------
                    Redundant Internal Coordinates


    -----------------------------------------------------------------
         Definition                    Initial Value    d2E/dq (diagonal element)
    -----------------------------------------------------------------
      1. B(C   1,Sc  0)                  2.3111         0.000000   
      2. B(N   2,C   1)                  1.3416         0.000000   
      3. B(C   3,N   2)                  1.3664         0.000000   
      4. B(C   4,C   3)                  1.3475         0.000000   
      5. B(N   5,C   1)                  1.3501         0.000000   
      6. B(N   5,C   4)                  1.3647         0.000000   
      7. B(C   6,N   5)                  1.4470         0.000000   
      8. B(H   7,C   6)                  1.0917         0.000000   
      9. B(H   8,C   6)                  1.0872         0.000000   
     10. B(H   9,C   6)                  1.0913         0.000000   
     11. B(C  10,N   2)                  1.4459         0.000000   
     12. B(H  11,C  10)                  1.0852         0.000000   
     13. B(H  12,C  10)                  1.0878         0.000000   
     14. B(H  13,C  10)                  1.0892         0.000000   
     15. B(H  14,C   3)                  1.0735         0.000000   
     16. B(H  15,C   4)                  1.0760         0.000000   
     17. B(C  16,Sc  0)                  2.5745         0.000000   
     18. B(H  17,C  16)                  1.0960         0.000000   
     19. B(H  18,C  16)                  1.0819         0.000000   
     20. B(H  19,C  16)                  1.0924         0.000000   
     21. B(H  20,Sc  0)                  1.7174         0.000000   
     22. A(C   1,Sc  0,C  16)           98.4158         0.000000   
     23. A(C  16,Sc  0,H  20)           39.1488         0.000000   
     24. A(C   1,Sc  0,H  20)          116.9290         0.000000   
     25. A(N   2,C   1,N   5)          104.4312         0.000000   
     26. A(Sc  0,C   1,N   5)          116.2202         0.000000   
     27. A(Sc  0,C   1,N   2)          138.1957         0.000000   
     28. A(C   3,N   2,C  10)          123.2421         0.000000   
     29. A(C   1,N   2,C   3)          111.1099         0.000000   
     30. A(C   1,N   2,C  10)          125.6479         0.000000   
     31. A(C   4,C   3,H  14)          130.5751         0.000000   
     32. A(N   2,C   3,H  14)          122.5508         0.000000   
     33. A(N   2,C   3,C   4)          106.8740         0.000000   
     34. A(C   3,C   4,H  15)          130.7367         0.000000   
     35. A(C   3,C   4,N   5)          106.3066         0.000000   
     36. A(N   5,C   4,H  15)          122.9468         0.000000   
     37. A(C   1,N   5,C   4)          111.2758         0.000000   
     38. A(C   4,N   5,C   6)          124.8736         0.000000   
     39. A(C   1,N   5,C   6)          123.8093         0.000000   
     40. A(H   8,C   6,H   9)          109.9274         0.000000   
     41. A(H   7,C   6,H   9)          107.3739         0.000000   
     42. A(N   5,C   6,H   9)          111.0727         0.000000   
     43. A(H   7,C   6,H   8)          107.7033         0.000000   
     44. A(N   5,C   6,H   8)          111.4894         0.000000   
     45. A(N   5,C   6,H   7)          109.1240         0.000000   
     46. A(H  12,C  10,H  13)          109.2966         0.000000   
     47. A(H  11,C  10,H  13)          108.6221         0.000000   
     48. A(N   2,C  10,H  13)          110.3387         0.000000   
     49. A(H  11,C  10,H  12)          108.0122         0.000000   
     50. A(N   2,C  10,H  12)          110.1108         0.000000   
     51. A(N   2,C  10,H  11)          110.4082         0.000000   
     52. A(H  17,C  16,H  18)          103.7620         0.000000   
     53. A(Sc  0,C  16,H  18)          107.9326         0.000000   
     54. A(Sc  0,C  16,H  17)          129.1099         0.000000   
     55. A(H  18,C  16,H  19)          107.5508         0.000000   
     56. A(H  17,C  16,H  19)          103.8903         0.000000   
     57. A(Sc  0,C  16,H  19)          103.1631         0.000000   
     58. D(N   2,C   1,Sc  0,C  16)    102.7465         0.000000   
     59. D(N   5,C   1,Sc  0,C  16)    -62.6057         0.000000   
     60. D(N   5,C   1,Sc  0,H  20)    -99.0783         0.000000   
     61. D(N   2,C   1,Sc  0,H  20)     66.2738         0.000000   
     62. D(C  10,N   2,C   1,N   5)   -179.9547         0.000000   
     63. D(C   3,N   2,C   1,Sc  0)   -166.4513         0.000000   
     64. D(C   3,N   2,C   1,N   5)      0.0013         0.000000   
     65. D(C  10,N   2,C   1,Sc  0)     13.5926         0.000000   
     66. D(H  14,C   3,N   2,C  10)      0.1240         0.000000   
     67. D(C   4,C   3,N   2,C  10)   -179.7436         0.000000   
     68. D(C   4,C   3,N   2,C   1)      0.2991         0.000000   
     69. D(H  14,C   3,N   2,C   1)   -179.8333         0.000000   
     70. D(N   5,C   4,C   3,H  14)    179.6805         0.000000   
     71. D(H  15,C   4,C   3,N   2)   -179.3230         0.000000   
     72. D(N   5,C   4,C   3,N   2)     -0.4663         0.000000   
     73. D(H  15,C   4,C   3,H  14)      0.8239         0.000000   
     74. D(C   6,N   5,C   4,H  15)     -2.8043         0.000000   
     75. D(C   1,N   5,C   4,H  15)    179.4608         0.000000   
     76. D(C   6,N   5,C   1,N   2)   -178.0689         0.000000   
     77. D(C   6,N   5,C   1,Sc  0)     -8.0928         0.000000   
     78. D(C   4,N   5,C   1,N   2)     -0.3055         0.000000   
     79. D(C   6,N   5,C   4,C   3)    178.2281         0.000000   
     80. D(C   4,N   5,C   1,Sc  0)    169.6707         0.000000   
     81. D(C   1,N   5,C   4,C   3)      0.4932         0.000000   
     82. D(H   9,C   6,N   5,C   4)    124.9911         0.000000   
     83. D(H   9,C   6,N   5,C   1)    -57.5494         0.000000   
     84. D(H   8,C   6,N   5,C   4)   -112.0360         0.000000   
     85. D(H   8,C   6,N   5,C   1)     65.4235         0.000000   
     86. D(H   7,C   6,N   5,C   4)      6.8068         0.000000   
     87. D(H   7,C   6,N   5,C   1)   -175.7337         0.000000   
     88. D(H  11,C  10,N   2,C   1)     -1.9022         0.000000   
     89. D(H  13,C  10,N   2,C   3)    -61.7684         0.000000   
     90. D(H  13,C  10,N   2,C   1)    118.1825         0.000000   
     91. D(H  12,C  10,N   2,C   3)     58.9649         0.000000   
     92. D(H  12,C  10,N   2,C   1)   -121.0841         0.000000   
     93. D(H  11,C  10,N   2,C   3)    178.1468         0.000000   
     94. D(H  19,C  16,Sc  0,H  20)    116.6153         0.000000   
     95. D(H  19,C  16,Sc  0,C   1)     -6.3013         0.000000   
     96. D(H  18,C  16,Sc  0,H  20)   -129.7324         0.000000   
     97. D(H  18,C  16,Sc  0,C   1)    107.3510         0.000000   
     98. D(H  17,C  16,Sc  0,H  20)     -3.9061         0.000000   
     99. D(H  17,C  16,Sc  0,C   1)   -126.8228         0.000000   
    -----------------------------------------------------------------

Number of atoms                         .... 21
Number of degrees of freedom            .... 99

         *************************************************************
         *                GEOMETRY OPTIMIZATION CYCLE   1            *
         *************************************************************
---------------------------------
CARTESIAN COORDINATES (ANGSTROEM)
---------------------------------
  Sc     1.241860   -0.517110   -1.903900
  C      0.398160   -0.611870    0.245630
  N     -0.454930   -1.368360    0.952720
  C     -0.790610   -0.761950    2.130250
  C     -0.135300    0.414970    2.164830
  N      0.588770    0.484460    1.010110
  C      1.416490    1.604990    0.618730
  H      1.462610    2.320360    1.442070
  H      1.005310    2.121290   -0.245180
  H      2.438070    1.283690    0.408580
  C     -0.969070   -2.658660    0.550900
  H     -0.593510   -2.926460   -0.431370
  H     -2.055180   -2.628870    0.499110
  H     -0.663510   -3.425800    1.261110
  H     -1.461430   -1.208760    2.839370
  H     -0.115910    1.186080    2.915010
  C     -0.187680    1.434690   -2.784070
  H     -0.817220    1.481500   -3.680010
  H      0.452250    2.302410   -2.873550
  H     -0.884380    1.622370   -1.963930
  H      0.132260   -0.139070   -3.159010

----------------------------
CARTESIAN COORDINATES (A.U.)
----------------------------
  NO LB      ZA    FRAG     MASS         X           Y           Z
   0 Sc   21.0000    0    44.960    2.346775   -0.977196   -3.597850
   1 C     6.0000    0    12.011    0.752413   -1.156267    0.464173
   2 N     7.0000    0    14.007   -0.859693   -2.585826    1.800380
   3 C     6.0000    0    12.011   -1.494036   -1.439877    4.025589
   4 C     6.0000    0    12.011   -0.255680    0.784180    4.090936
   5 N     7.0000    0    14.007    1.112614    0.915497    1.908831
   6 C     6.0000    0    12.011    2.676778    3.032992    1.169230
   7 H     1.0000    0     1.008    2.763932    4.384845    2.725117
   8 H     1.0000    0     1.008    1.899761    4.008657   -0.463323
   9 H     1.0000    0     1.008    4.607285    2.425823    0.772104
  10 C     6.0000    0    12.011   -1.831277   -5.024139    1.041050
  11 H     1.0000    0     1.008   -1.121571   -5.530208   -0.815171
  12 H     1.0000    0     1.008   -3.883727   -4.967844    0.943181
  13 H     1.0000    0     1.008   -1.253852   -6.473824    2.383153
  14 H     1.0000    0     1.008   -2.761702   -2.284225    5.365632
  15 H     1.0000    0     1.008   -0.219038    2.241366    5.508571
  16 C     6.0000    0    12.011   -0.354664    2.711171   -5.261130
  17 H     1.0000    0     1.008   -1.544322    2.799629   -6.954211
  18 H     1.0000    0     1.008    0.854629    4.350924   -5.430223
  19 H     1.0000    0     1.008   -1.671236    3.065835   -3.711290
  20 H     1.0000    0     1.008    0.249935   -0.262804   -5.969664

--------------------------------
INTERNAL COORDINATES (ANGSTROEM)
--------------------------------
 Sc     0   0   0     0.000000000000     0.00000000     0.00000000
 C      1   0   0     2.311122750634     0.00000000     0.00000000
 N      2   1   0     1.341646725595   138.19565056     0.00000000
 C      3   2   1     1.366378809628   111.10993439   193.54866153
 C      4   3   2     1.347504233351   106.87396196     0.29908804
 N      2   1   3     1.350074557719   116.22017124   194.64786722
 C      6   2   1     1.447026670003   123.80933443   351.90724857
 H      7   6   2     1.091682209665   109.12400161   184.26631439
 H      7   6   2     1.087186814903   111.48940716    65.42347128
 H      7   6   2     1.091339731202   111.07271356   302.45057999
 C      3   2   1     1.445916090926   125.64790741    13.59261391
 H     11   3   2     1.085180402744   110.40819300   358.09780417
 H     11   3   2     1.087752076670   110.11076342   238.91586035
 H     11   3   2     1.089159739111   110.33870413   118.18253007
 H      4   3   2     1.073540787721   122.55076225   180.16673791
 H      5   4   3     1.075991002100   130.73667443   180.67701217
 C      1   2   3     2.574452773018    98.41582350   102.74648177
 H     17   1   2     1.096001948584   129.10988379   233.17723923
 H     17   1   2     1.081875720081   107.93257344   107.35101128
 H     17   1   2     1.092357218130   103.16313741   353.69869073
 H     17   1   2     1.649139819664    41.10682408   237.08336280

---------------------------
INTERNAL COORDINATES (A.U.)
---------------------------
 Sc     0   0   0     0.000000000000     0.00000000     0.00000000
 C      1   0   0     4.367389060574     0.00000000     0.00000000
 N      2   1   0     2.535344879847   138.19565056     0.00000000
 C      3   2   1     2.582081745390   111.10993439   193.54866153
 C      4   3   2     2.546413965334   106.87396196     0.29908804
 N      2   1   3     2.551271174464   116.22017124   194.64786722
 C      6   2   1     2.734484114786   123.80933443   351.90724857
 H      7   6   2     2.062980401542   109.12400161   184.26631439
 H      7   6   2     2.054485336578   111.48940716    65.42347128
 H      7   6   2     2.062333211039   111.07271356   302.45057999
 C      3   2   1     2.732385424481   125.64790741    13.59261391
 H     11   3   2     2.050693767085   110.40819300   358.09780417
 H     11   3   2     2.055553526511   110.11076342   238.91586035
 H     11   3   2     2.058213623013   110.33870413   118.18253007
 H      4   3   2     2.028698082386   122.55076225   180.16673791
 H      5   4   3     2.033328316532   130.73667443   180.67701217
 C      1   2   3     4.865010685718    98.41582350   102.74648177
 H     17   1   2     2.071143525068   129.10988379   233.17723923
 H     17   1   2     2.044448821891   107.93257344   107.35101128
 H     17   1   2     2.064255982677   103.16313741   353.69869073
 H     17   1   2     3.116422615708    41.10682408   237.08336280

---------------------
BASIS SET INFORMATION
---------------------
There are 4 groups of distinct atoms

 Group   1 Type Sc  : 14s9p5d1f contracted to 5s3p2d1f pattern {63311/531/41/1}
 Group   2 Type C   : 8s4p1d contracted to 4s2p1d pattern {5111/31/1}
 Group   3 Type N   : 8s4p1d contracted to 4s2p1d pattern {5111/31/1}
 Group   4 Type H   : 4s contracted to 2s pattern {31}

Atom   0Sc   basis set group =>   1
Atom   1C    basis set group =>   2
Atom   2N    basis set group =>   3
Atom   3C    basis set group =>   2
Atom   4C    basis set group =>   2
Atom   5N    basis set group =>   3
Atom   6C    basis set group =>   2
Atom   7H    basis set group =>   4
Atom   8H    basis set group =>   4
Atom   9H    basis set group =>   4
Atom  10C    basis set group =>   2
Atom  11H    basis set group =>   4
Atom  12H    basis set group =>   4
Atom  13H    basis set group =>   4
Atom  14H    basis set group =>   4
Atom  15H    basis set group =>   4
Atom  16C    basis set group =>   2
Atom  17H    basis set group =>   4
Atom  18H    basis set group =>   4
Atom  19H    basis set group =>   4
Atom  20H    basis set group =>   4
---------------------------------
AUXILIARY/J BASIS SET INFORMATION
---------------------------------
There are 4 groups of distinct atoms

 Group   1 Type Sc  : 19s5p5d3f3g contracted to 8s5p5d2f3g pattern {121111111/11111/11111/21/111}
 Group   2 Type C   : 12s5p4d2f1g contracted to 6s4p3d1f1g pattern {711111/2111/211/2/1}
 Group   3 Type N   : 12s5p4d2f1g contracted to 6s4p3d1f1g pattern {711111/2111/211/2/1}
 Group   4 Type H   : 5s2p1d contracted to 3s1p1d pattern {311/2/1}

Atom   0Sc   basis set group =>   1
Atom   1C    basis set group =>   2
Atom   2N    basis set group =>   3
Atom   3C    basis set group =>   2
Atom   4C    basis set group =>   2
Atom   5N    basis set group =>   3
Atom   6C    basis set group =>   2
Atom   7H    basis set group =>   4
Atom   8H    basis set group =>   4
Atom   9H    basis set group =>   4
Atom  10C    basis set group =>   2
Atom  11H    basis set group =>   4
Atom  12H    basis set group =>   4
Atom  13H    basis set group =>   4
Atom  14H    basis set group =>   4
Atom  15H    basis set group =>   4
Atom  16C    basis set group =>   2
Atom  17H    basis set group =>   4
Atom  18H    basis set group =>   4
Atom  19H    basis set group =>   4
Atom  20H    basis set group =>   4


           ************************************************************
           *        Program running with 8 parallel MPI-processes     *
           *              working on a common directory               *
           ************************************************************
------------------------------------------------------------------------------
                           ORCA GTO INTEGRAL CALCULATION
                           -- RI-GTO INTEGRALS CHOSEN --
------------------------------------------------------------------------------
------------------------------------------------------------------------------
                   ___                                                        
                  /   \      - P O W E R E D   B Y -                         
                 /     \                                                     
                 |  |  |   _    _      __       _____    __    __             
                 |  |  |  | |  | |    /  \     |  _  \  |  |  /  |          
                  \  \/   | |  | |   /    \    | | | |  |  | /  /          
                 / \  \   | |__| |  /  /\  \   | |_| |  |  |/  /          
                |  |  |   |  __  | /  /__\  \  |    /   |      \           
                |  |  |   | |  | | |   __   |  |    \   |  |\   \          
                \     /   | |  | | |  |  |  |  | |\  \  |  | \   \       
                 \___/    |_|  |_| |__|  |__|  |_| \__\ |__|  \__/        
                                                                              
                      - O R C A' S   B I G   F R I E N D -                    
                                      &                                       
                       - I N T E G R A L  F E E D E R -                       
                                                                              
 v1 FN, 2020, v2 2021                                                         
------------------------------------------------------------------------------


Reading SHARK input file reaction-5-cineb10_optts_Compound_1.SHARKINP.tmp ... ok
----------------------
SHARK INTEGRAL PACKAGE
----------------------

Number of atoms                             ...     21
Number of basis functions                   ...    175
Number of shells                            ...     91
Maximum angular momentum                    ...      3
Integral batch strategy                     ... SHARK/LIBINT Hybrid
RI-J (if used) integral strategy            ... SPLIT-RIJ (Revised 2003 algorithm where possible)
Printlevel                                  ...      1
Contraction scheme used                     ... SEGMENTED contraction
Coulomb Range Separation                    ... NOT USED
Exchange Range Separation                   ... NOT USED
Finite Nucleus Model                        ... NOT USED
Auxiliary Coulomb fitting basis             ... AVAILABLE
   # of basis functions in Aux-J            ...    613
   # of shells in Aux-J                     ...    203
   Maximum angular momentum in Aux-J        ...      4
Auxiliary J/K fitting basis                 ... NOT available
Auxiliary Correlation fitting basis         ... NOT available
Auxiliary 'external' fitting basis          ... NOT available
Integral threshold                          ...     2.500000e-11
Primitive cut-off                           ...     2.500000e-12
Primitive pair pre-selection threshold      ...     2.500000e-12

Calculating pre-screening integrals         ... done (  0.0 sec) Dimension = 91
Organizing shell pair data                  ... done (  0.0 sec)
Shell pair information
Total number of shell pairs                 ...      4186
Shell pairs after pre-screening             ...      3656
Total number of primitive shell pairs       ...     16651
Primitive shell pairs kept                  ...      9818
          la=0 lb=0:   1544 shell pairs
          la=1 lb=0:   1076 shell pairs
          la=1 lb=1:    188 shell pairs
          la=2 lb=0:    523 shell pairs
          la=2 lb=1:    183 shell pairs
          la=2 lb=2:     51 shell pairs
          la=3 lb=0:     61 shell pairs
          la=3 lb=1:     19 shell pairs
          la=3 lb=2:     10 shell pairs
          la=3 lb=3:      1 shell pairs

Calculating one electron integrals          ... done (  0.0 sec)
Calculating RI/J V-Matrix + Cholesky decomp.... done (  0.0 sec)
Calculating Nuclear repulsion               ... done (  0.0 sec) ENN=    577.995067034191 Eh

SHARK setup successfully completed in   0.2 seconds

Maximum memory used throughout the entire GTOINT-calculation: 17.4 MB


           ************************************************************
           *        Program running with 8 parallel MPI-processes     *
           *              working on a common directory               *
           ************************************************************
-------------------------------------------------------------------------------
                                 ORCA SCF
-------------------------------------------------------------------------------

------------
SCF SETTINGS
------------
Hamiltonian:
 Density Functional     Method          .... DFT(GTOs)
 Exchange Functional    Exchange        .... PBE
   PBE kappa parameter   XKappa         ....  1.024500
   PBE mue parameter    XMuePBE         ....  0.123457
 Correlation Functional Correlation     .... PBE
   PBE beta parameter  CBetaPBE         ....  0.030000
 LDA part of GGA corr.  LDAOpt          .... PW91-LDA
 Gradients option       PostSCFGGA      .... off
 Hybrid DFT is turned on
   Fraction HF Exchange ScalHFX         ....  0.420000
   Scaling of DF-GGA-X  ScalDFX         ....  0.580000
   Scaling of DF-GGA-C  ScalDFC         ....  1.000000
   Scaling of DF-LDA-C  ScalLDAC        ....  1.000000
   Perturbative correction              ....  0.000000
   Density functional embedding theory  .... OFF
 RI-approximation to the Coulomb term is turned on
   Number of AuxJ basis functions       .... 613
   RIJ-ON(X) (HFX calculated with O(N)) .... on
   Number of AuxJ basis functions       .... 613
   RIJ-COSX (HFX calculated with COS-X)).... on


General Settings:
 Integral files         IntName         .... reaction-5-cineb10_optts_Compound_1
 Hartree-Fock type      HFTyp           .... RHF
 Total Charge           Charge          ....    1
 Multiplicity           Mult            ....    1
 Number of Electrons    NEL             ....   82
 Basis Dimension        Dim             ....  175
 Nuclear Repulsion      ENuc            ....    577.9950670342 Eh

Convergence Acceleration:
 DIIS                   CNVDIIS         .... on
   Start iteration      DIISMaxIt       ....    12
   Startup error        DIISStart       ....  0.200000
   # of expansion vecs  DIISMaxEq       ....     5
   Bias factor          DIISBfac        ....   1.050
   Max. coefficient     DIISMaxC        ....  10.000
 Trust-Rad. Augm. Hess. CNVTRAH         .... auto
   Auto Start mean grad. ratio tolernc. ....  1.125000
   Auto Start start iteration           ....    20
   Auto Start num. interpolation iter.  ....    10
   Max. Number of Micro iterations      ....    16
   Max. Number of Macro iterations      .... Maxiter - #DIIS iter
   Number of Davidson start vectors     ....     2
   Converg. threshold I  (grad. norm)   ....   1.000e-05
   Converg. threshold II (energy diff.) ....   1.000e-08
   Grad. Scal. Fac. for Micro threshold ....   0.100
   Minimum threshold for Micro iter.    ....   0.010
   NR start threshold (gradient norm)   ....   0.001
   Initial trust radius                 ....   0.400
   Minimum AH scaling param. (alpha)    ....   1.000
   Maximum AH scaling param. (alpha)    .... 1000.000
   Orbital update algorithm             .... Taylor
   White noise on init. David. guess    .... on
   Maximum white noise                  ....   0.010
   Quad. conv. algorithm                .... NR
   COSX micro iterations for RIJONX calc.... off
 SOSCF                  CNVSOSCF        .... off
 Level Shifting         CNVShift        .... on
   Level shift para.    LevelShift      ....    0.2500
   Turn off err/grad.   ShiftErr        ....    0.0010
 Zerner damping         CNVZerner       .... off
 Static damping         CNVDamp         .... on
   Fraction old density DampFac         ....    0.7000
   Max. Damping (<1)    DampMax         ....    0.9800
   Min. Damping (>=0)   DampMin         ....    0.0000
   Turn off err/grad.   DampErr         ....    0.1000
 Fernandez-Rico         CNVRico         .... off

SCF Procedure:
 Maximum # iterations   MaxIter         ....   125
 SCF integral mode      SCFMode         .... Direct
   Integral package                     .... SHARK and LIBINT hybrid scheme
 Reset frequency        DirectResetFreq ....    20
 Integral Threshold     Thresh          ....  2.500e-11 Eh
 Primitive CutOff       TCut            ....  2.500e-12 Eh

Convergence Tolerance:
 Convergence Check Mode ConvCheckMode   .... Total+1el-Energy
 Convergence forced     ConvForced      .... 0
 Energy Change          TolE            ....  1.000e-08 Eh
 1-El. energy change                    ....  1.000e-05 Eh
 DIIS Error             TolErr          ....  5.000e-07


Diagonalization of the overlap matrix:
Smallest eigenvalue                        ... 1.397e-03
Time for diagonalization                   ...    0.007 sec
Threshold for overlap eigenvalues          ... 1.000e-08
Number of eigenvalues below threshold      ... 0
Time for construction of square roots      ...    0.003 sec
Total time needed                          ...    0.010 sec

--------------------------------
INITIAL GUESS: MINIMAL BASIS EHT
--------------------------------
The minimal basis has 70 functions
EHT matrix was diagonalized
Basis set overlap was calculated now projecting the orbitals
Using GuessMode=FMatrix for the initial guess
C*T matrix was formed
Effective Fockian was calculated
Effective Fockian was diagonalized
Initial density was built
                      ------------------
                      INITIAL GUESS DONE
                      ------------------
-------------------
DFT GRID GENERATION
-------------------

General Integration Accuracy     IntAcc      ... 4.159
Radial Grid Type                 RadialGrid  ... OptM3 with GC (2021)
Angular Grid (max. ang.)         AngularGrid ... 3 (Lebedev-194)
Angular grid pruning method      GridPruning ... 4 (adaptive)
Weight generation scheme         WeightScheme... Becke
Basis function cutoff            BFCut       ... 1.0000e-11
Integration weight cutoff        WCut        ... 1.0000e-14
Angular grids for H and He will be reduced by one unit
Partially contracted basis set               ... off
Rotationally invariant grid construction     ... off

Total number of grid points                  ...    48189
Total number of batches                      ...      763
Average number of points per batch           ...       63
Average number of grid points per atom       ...     2295
Time for grid setup =    0.150 sec

--------------------
COSX GRID GENERATION
--------------------

GRIDX 1
-------
General Integration Accuracy     IntAcc      ... 3.816
Radial Grid Type                 RadialGrid  ... OptM3 with GC (2021)
Angular Grid (max. ang.)         AngularGrid ... 1 (Lebedev-50)
Angular grid pruning method      GridPruning ... 4 (adaptive)
Weight generation scheme         WeightScheme... Becke
Basis function cutoff            BFCut       ... 1.0000e-11
Integration weight cutoff        WCut        ... 1.0000e-14
Angular grids for H and He will be reduced by one unit
Partially contracted basis set               ... on
Rotationally invariant grid construction     ... off

Total number of grid points                  ...    12277
Total number of batches                      ...      201
Average number of points per batch           ...       61
Average number of grid points per atom       ...      585
UseSFitting                                  ... on

GRIDX 2
-------
General Integration Accuracy     IntAcc      ... 4.020
Radial Grid Type                 RadialGrid  ... OptM3 with GC (2021)
Angular Grid (max. ang.)         AngularGrid ... 2 (Lebedev-110)
Angular grid pruning method      GridPruning ... 4 (adaptive)
Weight generation scheme         WeightScheme... Becke
Basis function cutoff            BFCut       ... 1.0000e-11
Integration weight cutoff        WCut        ... 1.0000e-14
Angular grids for H and He will be reduced by one unit
Partially contracted basis set               ... on
Rotationally invariant grid construction     ... off

Total number of grid points                  ...    25971
Total number of batches                      ...      419
Average number of points per batch           ...       61
Average number of grid points per atom       ...     1237
UseSFitting                                  ... on

GRIDX 3
-------
General Integration Accuracy     IntAcc      ... 4.338
Radial Grid Type                 RadialGrid  ... OptM3 with GC (2021)
Angular Grid (max. ang.)         AngularGrid ... 3 (Lebedev-194)
Angular grid pruning method      GridPruning ... 4 (adaptive)
Weight generation scheme         WeightScheme... Becke
Basis function cutoff            BFCut       ... 1.0000e-11
Integration weight cutoff        WCut        ... 1.0000e-14
Angular grids for H and He will be reduced by one unit
Partially contracted basis set               ... on
Rotationally invariant grid construction     ... off

Total number of grid points                  ...    56901
Total number of batches                      ...      898
Average number of points per batch           ...       63
Average number of grid points per atom       ...     2710
UseSFitting                                  ... on

Time for X-Grid setup             =    0.353 sec

--------------
SCF ITERATIONS
--------------
ITER       Energy         Delta-E        Max-DP      RMS-DP      [F,P]     Damp
               ***  Starting incremental Fock matrix formation  ***
  0  -1102.8371583808   0.000000000000 0.20813886  0.00507462  0.4079568 0.7000
  1  -1103.2964743273  -0.459315946558 0.10550351  0.00339005  0.2905480 0.7000
  2  -1103.5956197057  -0.299145378367 0.08339912  0.00253081  0.2059251 0.7000
                               ***Turning on DIIS***
  3  -1103.8333464830  -0.237726777348 0.06133716  0.00190943  0.1456665 0.7000
  4  -1104.0059920555  -0.172645572433 0.04204192  0.00137777  0.1027568 0.7000
  5  -1104.1280360176  -0.122043962078 0.10182827  0.00340542  0.0719239 0.0000
  6  -1104.4226042952  -0.294568277641 0.00862280  0.00030315  0.0110299 0.0000
  7  -1104.4235636010  -0.000959305844 0.00671026  0.00017673  0.0041466 0.0000
  8  -1104.4239353525  -0.000371751411 0.00432872  0.00013783  0.0033103 0.0000
  9  -1104.4241292179  -0.000193865401 0.00368802  0.00008701  0.0020494 0.0000
 10  -1104.4242174236  -0.000088205737 0.00313203  0.00006834  0.0013898 0.0000
 11  -1104.4242706256  -0.000053202017 0.00255805  0.00005433  0.0011908 0.0000
 12  -1104.4243055405  -0.000034914932 0.00299124  0.00005826  0.0010148 0.0000
 13  -1104.4243371916  -0.000031651057 0.00672987  0.00013319  0.0007951 0.0000
               *** Restarting incremental Fock matrix formation ***
                                   *** Resetting DIIS ***
 14  -1104.4245177421  -0.000180550483 0.00102887  0.00003436  0.0003628 0.0000
 15  -1104.4245231166  -0.000005374547 0.00071584  0.00001685  0.0004873 0.0000
 16  -1104.4245258274  -0.000002710742 0.00127269  0.00002823  0.0002436 0.0000
 17  -1104.4245296051  -0.000003777756 0.00135404  0.00002886  0.0001529 0.0000
 18  -1104.4245318094  -0.000002204291 0.00078952  0.00001745  0.0000747 0.0000
 19  -1104.4245323944  -0.000000584933 0.00025760  0.00000556  0.0000515 0.0000
 20  -1104.4245324759  -0.000000081551 0.00008763  0.00000247  0.0000144 0.0000
 21  -1104.4245324926  -0.000000016686 0.00004656  0.00000116  0.0000160 0.0000
 22  -1104.4245324999  -0.000000007279 0.00002838  0.00000081  0.0000061 0.0000
 23  -1104.4245325067  -0.000000006848 0.00003951  0.00000097  0.0000062 0.0000
 24  -1104.4245325125  -0.000000005788 0.00001359  0.00000036  0.0000031 0.0000
 25  -1104.4245325154  -0.000000002943 0.00001817  0.00000041  0.0000033 0.0000
 26  -1104.4245325167  -0.000000001220 0.00000766  0.00000024  0.0000017 0.0000
                 **** Energy Check signals convergence ****

               *****************************************************
               *                     SUCCESS                       *
               *           SCF CONVERGED AFTER  27 CYCLES          *
               *****************************************************

Old exchange energy                            =    -36.311847922 Eh
New exchange energy                            =    -36.311895352 Eh
Exchange energy change after final integration =     -0.000047429 Eh
Total energy after final integration           =  -1104.424579947 Eh
Final COS-X integration done in                =     1.570 sec

----------------
TOTAL SCF ENERGY
----------------

Total Energy       :        -1104.42457995 Eh          -30052.92068 eV

Components:
Nuclear Repulsion  :          577.99506703 Eh           15728.04537 eV
Electronic Energy  :        -1682.41964698 Eh          -45780.96605 eV
One Electron Energy:        -2641.96686844 Eh          -71891.57339 eV
Two Electron Energy:          959.54722146 Eh           26110.60733 eV
Max COSX asymmetry :            0.00000557 Eh               0.00015 eV

Virial components:
Potential Energy   :        -2205.62903057 Eh          -60018.21719 eV
Kinetic Energy     :         1101.20445062 Eh           29965.29651 eV
Virial Ratio       :            2.00292419


DFT components:
N(Alpha)           :       40.999988097675 electrons
N(Beta)            :       40.999988097675 electrons
N(Total)           :       81.999976195350 electrons
E(X)               :      -48.421225552294 Eh       
E(C)               :       -3.769871658977 Eh       
E(XC)              :      -52.191097211271 Eh       
DFET-embed. en.    :        0.000000000000 Eh       

---------------
SCF CONVERGENCE
---------------

  Last Energy change         ...   -7.9240e-10  Tolerance :   1.0000e-08
  Last MAX-Density change    ...    0.0000e+00  Tolerance :   1.0000e-07
  Last RMS-Density change    ...    0.0000e+00  Tolerance :   5.0000e-09
  Last DIIS Error            ...    1.2575e-06  Tolerance :   5.0000e-07

             **** THE GBW FILE WAS UPDATED (reaction-5-cineb10_optts_Compound_1.gbw) ****
             **** DENSITY reaction-5-cineb10_optts_Compound_1.scfp WAS UPDATED ****
             **** ENERGY FILE WAS UPDATED (reaction-5-cineb10_optts_Compound_1.en.tmp) ****
             **** THE GBW FILE WAS UPDATED (reaction-5-cineb10_optts_Compound_1.gbw) ****
             **** DENSITY reaction-5-cineb10_optts_Compound_1.scfp WAS UPDATED ****
----------------
ORBITAL ENERGIES
----------------

  NO   OCC          E(Eh)            E(eV) 
   0   2.0000    -162.812489     -4430.3531 
   1   2.0000     -18.115373      -492.9444 
   2   2.0000     -14.958367      -407.0379 
   3   2.0000     -14.949967      -406.8093 
   4   2.0000     -14.944999      -406.6741 
   5   2.0000     -14.859253      -404.3408 
   6   2.0000     -14.858785      -404.3281 
   7   2.0000     -10.636449      -289.4325 
   8   2.0000     -10.627123      -289.1787 
   9   2.0000     -10.624721      -289.1134 
  10   2.0000     -10.620943      -289.0105 
  11   2.0000     -10.619765      -288.9785 
  12   2.0000     -10.528957      -286.5075 
  13   2.0000      -2.346303       -63.8461 
  14   2.0000      -1.506656       -40.9982 
  15   2.0000      -1.492957       -40.6254 
  16   2.0000      -1.481919       -40.3251 
  17   2.0000      -1.310212       -35.6527 
  18   2.0000      -1.188305       -32.3354 
  19   2.0000      -1.026112       -27.9219 
  20   2.0000      -0.979976       -26.6665 
  21   2.0000      -0.928302       -25.2604 
  22   2.0000      -0.850917       -23.1546 
  23   2.0000      -0.841779       -22.9060 
  24   2.0000      -0.804081       -21.8802 
  25   2.0000      -0.750797       -20.4302 
  26   2.0000      -0.703554       -19.1447 
  27   2.0000      -0.675203       -18.3732 
  28   2.0000      -0.659777       -17.9534 
  29   2.0000      -0.657184       -17.8829 
  30   2.0000      -0.650051       -17.6888 
  31   2.0000      -0.604814       -16.4578 
  32   2.0000      -0.598607       -16.2889 
  33   2.0000      -0.592466       -16.1218 
  34   2.0000      -0.546807       -14.8794 
  35   2.0000      -0.539529       -14.6813 
  36   2.0000      -0.510788       -13.8992 
  37   2.0000      -0.486308       -13.2331 
  38   2.0000      -0.483515       -13.1571 
  39   2.0000      -0.431938       -11.7536 
  40   2.0000      -0.310462        -8.4481 
  41   0.0000      -0.177548        -4.8313 
  42   0.0000      -0.154619        -4.2074 
  43   0.0000      -0.135609        -3.6901 
  44   0.0000      -0.125015        -3.4018 
  45   0.0000      -0.118743        -3.2312 
  46   0.0000      -0.111654        -3.0383 
  47   0.0000      -0.079585        -2.1656 
  48   0.0000      -0.060593        -1.6488 
  49   0.0000      -0.053611        -1.4588 
  50   0.0000      -0.008496        -0.2312 
  51   0.0000       0.002367         0.0644 
  52   0.0000       0.031747         0.8639 
  53   0.0000       0.050654         1.3784 
  54   0.0000       0.053601         1.4586 
  55   0.0000       0.056518         1.5379 
  56   0.0000       0.067220         1.8292 
  57   0.0000       0.071100         1.9347 
  58   0.0000       0.076578         2.0838 
  59   0.0000       0.082498         2.2449 
  60   0.0000       0.085313         2.3215 
  61   0.0000       0.094420         2.5693 
  62   0.0000       0.116797         3.1782 
  63   0.0000       0.120442         3.2774 
  64   0.0000       0.136939         3.7263 
  65   0.0000       0.144167         3.9230 
  66   0.0000       0.167651         4.5620 
  67   0.0000       0.172297         4.6884 
  68   0.0000       0.218979         5.9587 
  69   0.0000       0.230306         6.2670 
  70   0.0000       0.309647         8.4259 
  71   0.0000       0.328858         8.9487 
  72   0.0000       0.333731         9.0813 
  73   0.0000       0.351944         9.5769 
  74   0.0000       0.365169         9.9368 
  75   0.0000       0.382079        10.3969 
  76   0.0000       0.395336        10.7576 
  77   0.0000       0.416326        11.3288 
  78   0.0000       0.419327        11.4105 
  79   0.0000       0.429851        11.6968 
  80   0.0000       0.440487        11.9863 
  81   0.0000       0.453276        12.3343 
  82   0.0000       0.482037        13.1169 
  83   0.0000       0.492635        13.4053 
  84   0.0000       0.498912        13.5761 
  85   0.0000       0.519609        14.1393 
  86   0.0000       0.530763        14.4428 
  87   0.0000       0.545825        14.8527 
  88   0.0000       0.562120        15.2961 
  89   0.0000       0.567208        15.4345 
  90   0.0000       0.595928        16.2160 
  91   0.0000       0.610898        16.6234 
  92   0.0000       0.661802        18.0085 
  93   0.0000       0.675352        18.3773 
  94   0.0000       0.696322        18.9479 
  95   0.0000       0.763093        20.7648 
  96   0.0000       0.774928        21.0869 
  97   0.0000       0.781183        21.2571 
  98   0.0000       0.799548        21.7568 
  99   0.0000       0.822493        22.3812 
 100   0.0000       0.842325        22.9208 
 101   0.0000       0.851734        23.1769 
 102   0.0000       0.860001        23.4018 
 103   0.0000       0.875860        23.8334 
 104   0.0000       0.885021        24.0826 
 105   0.0000       0.888095        24.1663 
 106   0.0000       0.893559        24.3150 
 107   0.0000       0.911941        24.8152 
 108   0.0000       0.928271        25.2595 
 109   0.0000       0.934493        25.4289 
 110   0.0000       0.943882        25.6843 
 111   0.0000       0.953579        25.9482 
 112   0.0000       0.961189        26.1553 
 113   0.0000       0.968848        26.3637 
 114   0.0000       0.980671        26.6854 
 115   0.0000       1.006154        27.3788 
 116   0.0000       1.039688        28.2914 
 117   0.0000       1.080122        29.3916 
 118   0.0000       1.115099        30.3434 
 119   0.0000       1.134531        30.8722 
 120   0.0000       1.168605        31.7994 
 121   0.0000       1.201173        32.6856 
 122   0.0000       1.236701        33.6523 
 123   0.0000       1.244308        33.8593 
 124   0.0000       1.268537        34.5186 
 125   0.0000       1.298334        35.3295 
 126   0.0000       1.334589        36.3160 
 127   0.0000       1.345189        36.6044 
 128   0.0000       1.461446        39.7680 
 129   0.0000       1.499668        40.8080 
 130   0.0000       1.517122        41.2830 
 131   0.0000       1.566143        42.6169 
 132   0.0000       1.695358        46.1330 
 133   0.0000       1.729636        47.0658 
 134   0.0000       1.739954        47.3466 
 135   0.0000       1.768456        48.1221 
 136   0.0000       1.819584        49.5134 
 137   0.0000       1.847551        50.2744 
 138   0.0000       1.863808        50.7168 
 139   0.0000       1.883888        51.2632 
 140   0.0000       1.912275        52.0356 
 141   0.0000       1.947842        53.0035 
 142   0.0000       1.966832        53.5202 
 143   0.0000       2.009735        54.6877 
 144   0.0000       2.049756        55.7767 
 145   0.0000       2.059911        56.0530 
 146   0.0000       2.082056        56.6556 
 147   0.0000       2.136677        58.1419 
 148   0.0000       2.158502        58.7358 
 149   0.0000       2.165261        58.9198 
 150   0.0000       2.179984        59.3204 
 151   0.0000       2.213009        60.2190 
 152   0.0000       2.249194        61.2037 
 153   0.0000       2.257037        61.4171 
 154   0.0000       2.262599        61.5685 
 155   0.0000       2.282280        62.1040 
 156   0.0000       2.371081        64.5204 
 157   0.0000       2.378269        64.7160 
 158   0.0000       2.434080        66.2347 
 159   0.0000       2.524971        68.7079 
 160   0.0000       2.536828        69.0306 
 161   0.0000       2.658564        72.3432 
 162   0.0000       2.712245        73.8039 
 163   0.0000       2.747670        74.7679 
 164   0.0000       2.956200        80.4423 
 165   0.0000       3.027154        82.3730 
 166   0.0000       3.089155        84.0602 
 167   0.0000      13.368886       363.7859 
 168   0.0000      13.575493       369.4079 
 169   0.0000      13.638871       371.1325 
 170   0.0000      13.651394       371.4733 
 171   0.0000      13.787382       375.1737 
 172   0.0000      13.979957       380.4140 
 173   0.0000      19.115401       520.1565 
 174   0.0000      19.318786       525.6909 

                    ********************************
                    * MULLIKEN POPULATION ANALYSIS *
                    ********************************

-----------------------
MULLIKEN ATOMIC CHARGES
-----------------------
   0 Sc:    0.713587
   1 C :    0.187115
   2 N :   -0.417341
   3 C :   -0.071301
   4 C :   -0.065427
   5 N :   -0.403200
   6 C :   -0.554429
   7 H :    0.290251
   8 H :    0.290890
   9 H :    0.246765
  10 C :   -0.512906
  11 H :    0.237007
  12 H :    0.278816
  13 H :    0.274819
  14 H :    0.300402
  15 H :    0.300655
  16 C :   -0.935980
  17 H :    0.267655
  18 H :    0.226769
  19 H :    0.230236
  20 H :    0.115618
Sum of atomic charges:    1.0000000

--------------------------------
MULLIKEN REDUCED ORBITAL CHARGES
--------------------------------
  0 Scs       :     6.328257  s :     6.328257
      pz      :     4.174348  p :    12.296046
      px      :     4.054227
      py      :     4.067471
      dz2     :     0.362681  d :     1.642184
      dxz     :     0.666114
      dyz     :     0.090203
      dx2y2   :     0.306127
      dxy     :     0.217059
      f0      :     0.004204  f :     0.019926
      f+1     :     0.007292
      f-1     :     0.001252
      f+2     :     0.002614
      f-2     :     0.002979
      f+3     :     0.000767
      f-3     :     0.000819
  1 C s       :     3.218806  s :     3.218806
      pz      :     1.005291  p :     2.527158
      px      :     0.821335
      py      :     0.700532
      dz2     :     0.008076  d :     0.066921
      dxz     :     0.011204
      dyz     :     0.021627
      dx2y2   :     0.014874
      dxy     :     0.011140
  2 N s       :     3.529862  s :     3.529862
      pz      :     1.234349  p :     3.834215
      px      :     1.355459
      py      :     1.244408
      dz2     :     0.012656  d :     0.053263
      dxz     :     0.008051
      dyz     :     0.012961
      dx2y2   :     0.010173
      dxy     :     0.009422
  3 C s       :     3.157621  s :     3.157621
      pz      :     0.871039  p :     2.858925
      px      :     1.054763
      py      :     0.933123
      dz2     :     0.013438  d :     0.054756
      dxz     :     0.010721
      dyz     :     0.013373
      dx2y2   :     0.007032
      dxy     :     0.010191
  4 C s       :     3.155134  s :     3.155134
      pz      :     0.876994  p :     2.854798
      px      :     0.932719
      py      :     1.045085
      dz2     :     0.013044  d :     0.055495
      dxz     :     0.011255
      dyz     :     0.013519
      dx2y2   :     0.011315
      dxy     :     0.006362
  5 N s       :     3.525864  s :     3.525864
      pz      :     1.219640  p :     3.824697
      px      :     1.369409
      py      :     1.235648
      dz2     :     0.012382  d :     0.052639
      dxz     :     0.009371
      dyz     :     0.011792
      dx2y2   :     0.009017
      dxy     :     0.010077
  6 C s       :     3.377964  s :     3.377964
      pz      :     1.188525  p :     3.127185
      px      :     1.009773
      py      :     0.928886
      dz2     :     0.007605  d :     0.049280
      dxz     :     0.005079
      dyz     :     0.013741
      dx2y2   :     0.010743
      dxy     :     0.012113
  7 H s       :     0.709749  s :     0.709749
  8 H s       :     0.709110  s :     0.709110
  9 H s       :     0.753235  s :     0.753235
 10 C s       :     3.365187  s :     3.365187
      pz      :     1.129844  p :     3.098377
      px      :     1.133465
      py      :     0.835068
      dz2     :     0.009386  d :     0.049343
      dxz     :     0.004608
      dyz     :     0.011267
      dx2y2   :     0.015751
      dxy     :     0.008330
 11 H s       :     0.762993  s :     0.762993
 12 H s       :     0.721184  s :     0.721184
 13 H s       :     0.725181  s :     0.725181
 14 H s       :     0.699598  s :     0.699598
 15 H s       :     0.699345  s :     0.699345
 16 C s       :     3.468280  s :     3.468280
      pz      :     1.153888  p :     3.440138
      px      :     1.153801
      py      :     1.132450
      dz2     :     0.005161  d :     0.027561
      dxz     :     0.011380
      dyz     :     0.001296
      dx2y2   :     0.003859
      dxy     :     0.005866
 17 H s       :     0.732345  s :     0.732345
 18 H s       :     0.773231  s :     0.773231
 19 H s       :     0.769764  s :     0.769764
 20 H s       :     0.884382  s :     0.884382


                     *******************************
                     * LOEWDIN POPULATION ANALYSIS *
                     *******************************

----------------------
LOEWDIN ATOMIC CHARGES
----------------------
   0 Sc:    0.434180
   1 C :   -0.034633
   2 N :    0.001720
   3 C :   -0.087651
   4 C :   -0.080339
   5 N :   -0.001138
   6 C :   -0.240296
   7 H :    0.162891
   8 H :    0.159567
   9 H :    0.143207
  10 C :   -0.233462
  11 H :    0.141856
  12 H :    0.155116
  13 H :    0.152843
  14 H :    0.166978
  15 H :    0.166771
  16 C :   -0.552282
  17 H :    0.145726
  18 H :    0.133524
  19 H :    0.137216
  20 H :    0.128205

-------------------------------
LOEWDIN REDUCED ORBITAL CHARGES
-------------------------------
  0 Scs       :     6.329256  s :     6.329256
      pz      :     4.218835  p :    12.375406
      px      :     4.064367
      py      :     4.092205
      dz2     :     0.422493  d :     1.810513
      dxz     :     0.709438
      dyz     :     0.111633
      dx2y2   :     0.323207
      dxy     :     0.243742
      f0      :     0.011196  f :     0.050644
      f+1     :     0.017399
      f-1     :     0.003498
      f+2     :     0.006729
      f-2     :     0.006391
      f+3     :     0.003447
      f-3     :     0.001985
  1 C s       :     2.950987  s :     2.950987
      pz      :     1.141871  p :     2.937199
      px      :     0.918937
      py      :     0.876392
      dz2     :     0.016318  d :     0.146446
      dxz     :     0.022622
      dyz     :     0.046531
      dx2y2   :     0.033521
      dxy     :     0.027454
  2 N s       :     3.042123  s :     3.042123
      pz      :     1.254179  p :     3.827772
      px      :     1.331064
      py      :     1.242529
      dz2     :     0.031412  d :     0.128385
      dxz     :     0.020717
      dyz     :     0.032511
      dx2y2   :     0.021991
      dxy     :     0.021754
  3 C s       :     2.881415  s :     2.881415
      pz      :     0.975149  p :     3.084030
      px      :     1.066141
      py      :     1.042739
      dz2     :     0.031142  d :     0.122206
      dxz     :     0.021433
      dyz     :     0.031463
      dx2y2   :     0.015451
      dxy     :     0.022717
  4 C s       :     2.882883  s :     2.882883
      pz      :     0.976760  p :     3.073885
      px      :     1.006417
      py      :     1.090708
      dz2     :     0.029973  d :     0.123571
      dxz     :     0.025788
      dyz     :     0.028400
      dx2y2   :     0.024085
      dxy     :     0.015326
  5 N s       :     3.039965  s :     3.039965
      pz      :     1.251018  p :     3.833863
      px      :     1.334711
      py      :     1.248134
      dz2     :     0.030825  d :     0.127310
      dxz     :     0.022457
      dyz     :     0.031440
      dx2y2   :     0.020024
      dxy     :     0.022564
  6 C s       :     2.937311  s :     2.937311
      pz      :     1.151028  p :     3.208562
      px      :     1.058669
      py      :     0.998866
      dz2     :     0.013664  d :     0.094423
      dxz     :     0.009056
      dyz     :     0.025774
      dx2y2   :     0.021582
      dxy     :     0.024347
  7 H s       :     0.837109  s :     0.837109
  8 H s       :     0.840433  s :     0.840433
  9 H s       :     0.856793  s :     0.856793
 10 C s       :     2.937807  s :     2.937807
      pz      :     1.128991  p :     3.200813
      px      :     1.131372
      py      :     0.940450
      dz2     :     0.016982  d :     0.094841
      dxz     :     0.007380
      dyz     :     0.022423
      dx2y2   :     0.030982
      dxy     :     0.017074
 11 H s       :     0.858144  s :     0.858144
 12 H s       :     0.844884  s :     0.844884
 13 H s       :     0.847157  s :     0.847157
 14 H s       :     0.833022  s :     0.833022
 15 H s       :     0.833229  s :     0.833229
 16 C s       :     3.040269  s :     3.040269
      pz      :     1.158921  p :     3.468185
      px      :     1.163746
      py      :     1.145519
      dz2     :     0.008652  d :     0.043828
      dxz     :     0.017738
      dyz     :     0.001948
      dx2y2   :     0.006286
      dxy     :     0.009204
 17 H s       :     0.854274  s :     0.854274
 18 H s       :     0.866476  s :     0.866476
 19 H s       :     0.862784  s :     0.862784
 20 H s       :     0.871795  s :     0.871795


                      *****************************
                      * MAYER POPULATION ANALYSIS *
                      *****************************

  NA   - Mulliken gross atomic population
  ZA   - Total nuclear charge
  QA   - Mulliken gross atomic charge
  VA   - Mayer's total valence
  BVA  - Mayer's bonded valence
  FA   - Mayer's free valence

  ATOM       NA         ZA         QA         VA         BVA        FA
  0 Sc    20.2864    21.0000     0.7136     2.2496     2.2496    -0.0000
  1 C      5.8129     6.0000     0.1871     3.1811     3.1811     0.0000
  2 N      7.4173     7.0000    -0.4173     3.4151     3.4151     0.0000
  3 C      6.0713     6.0000    -0.0713     3.7547     3.7547    -0.0000
  4 C      6.0654     6.0000    -0.0654     3.7480     3.7480    -0.0000
  5 N      7.4032     7.0000    -0.4032     3.3820     3.3820    -0.0000
  6 C      6.5544     6.0000    -0.5544     3.5954     3.5954    -0.0000
  7 H      0.7097     1.0000     0.2903     0.8924     0.8924    -0.0000
  8 H      0.7091     1.0000     0.2909     0.8759     0.8759    -0.0000
  9 H      0.7532     1.0000     0.2468     0.8989     0.8989    -0.0000
 10 C      6.5129     6.0000    -0.5129     3.6308     3.6308    -0.0000
 11 H      0.7630     1.0000     0.2370     0.9104     0.9104    -0.0000
 12 H      0.7212     1.0000     0.2788     0.8855     0.8855    -0.0000
 13 H      0.7252     1.0000     0.2748     0.8863     0.8863    -0.0000
 14 H      0.6996     1.0000     0.3004     0.8794     0.8794    -0.0000
 15 H      0.6993     1.0000     0.3007     0.8792     0.8792    -0.0000
 16 C      6.9360     6.0000    -0.9360     3.6597     3.6597    -0.0000
 17 H      0.7323     1.0000     0.2677     0.8917     0.8917    -0.0000
 18 H      0.7732     1.0000     0.2268     0.9077     0.9077     0.0000
 19 H      0.7698     1.0000     0.2302     0.9056     0.9056    -0.0000
 20 H      0.8844     1.0000     0.1156     0.9546     0.9546    -0.0000

  Mayer bond orders larger than 0.100000
B(  0-Sc,  1-C ) :   0.6284 B(  0-Sc, 16-C ) :   0.7257 B(  0-Sc, 20-H ) :   0.7524 
B(  1-C ,  2-N ) :   1.2386 B(  1-C ,  5-N ) :   1.2216 B(  2-N ,  3-C ) :   1.1501 
B(  2-N , 10-C ) :   0.9206 B(  3-C ,  4-C ) :   1.6458 B(  3-C , 14-H ) :   0.8796 
B(  4-C ,  5-N ) :   1.1395 B(  4-C , 15-H ) :   0.8788 B(  5-N ,  6-C ) :   0.9138 
B(  6-C ,  7-H ) :   0.9020 B(  6-C ,  8-H ) :   0.8730 B(  6-C ,  9-H ) :   0.8981 
B( 10-C , 11-H ) :   0.9185 B( 10-C , 12-H ) :   0.8953 B( 10-C , 13-H ) :   0.8961 
B( 16-C , 17-H ) :   0.9034 B( 16-C , 18-H ) :   0.9045 B( 16-C , 19-H ) :   0.9070 
B( 16-C , 20-H ) :   0.1995 

-------
TIMINGS
-------

Total SCF time: 0 days 0 hours 0 min 20 sec 

Total time                  ....      20.840 sec
Sum of individual times     ....      20.560 sec  ( 98.7%)

Fock matrix formation       ....      19.655 sec  ( 94.3%)
  Split-RI-J                ....       2.523 sec  ( 12.8% of F)
  Chain of spheres X        ....      14.989 sec  ( 76.3% of F)
  XC integration            ....       2.040 sec  ( 10.4% of F)
    Basis function eval.    ....       0.845 sec  ( 41.4% of XC)
    Density eval.           ....       0.399 sec  ( 19.6% of XC)
    XC-Functional eval.     ....       0.211 sec  ( 10.3% of XC)
    XC-Potential eval.      ....       0.395 sec  ( 19.4% of XC)
Diagonalization             ....       0.208 sec  (  1.0%)
Density matrix formation    ....       0.010 sec  (  0.0%)
Population analysis         ....       0.010 sec  (  0.0%)
Initial guess               ....       0.019 sec  (  0.1%)
Orbital Transformation      ....       0.000 sec  (  0.0%)
Orbital Orthonormalization  ....       0.000 sec  (  0.0%)
DIIS solution               ....       0.156 sec  (  0.7%)
Grid generation             ....       0.503 sec  (  2.4%)

Maximum memory used throughout the entire SCF-calculation: 69.6 MB


-------------------------------------------------------------------------------
                          DFT DISPERSION CORRECTION                            
                                                                               
                              DFTD3 V3.1  Rev 1                                
                          USING Becke-Johnson damping                          
-------------------------------------------------------------------------------
The PBEh-3c composite method is recognized
Using three-body term ABC
Active option DFTDOPT                   ...         4   

molecular C6(AA) [au] = 5397.321021 


            DFT-D V3
 parameters
 s6 scaling factor         :     1.0000 
 a1 scaling factor         :     0.4860 
 s8 scaling factor         :     0.0000 
 a2 scaling factor         :     4.5000 
 Damping factor alpha9(ATM):    16.0000 
 ad hoc parameters k1-k3   :    16.0000     1.3333    -4.0000 

 Edisp/kcal,au: -6.991886593107  -0.011142279338 
 E6   /kcal   :  -7.038648714 
 E8   /kcal   :  -0.000000000 
 E6(ABC)      :   0.046762121 
 % E8         :   0.000000000 
 % E6(ABC)    :  -0.668805489 

-------------------------   ----------------
Dispersion correction           -0.011142279
-------------------------   ----------------

------------------   -----------------
gCP correction             0.035090152
------------------   -----------------

-------------------------   --------------------
FINAL SINGLE POINT ENERGY     -1104.400632074002
-------------------------   --------------------



           ************************************************************
           *        Program running with 8 parallel MPI-processes     *
           *              working on a common directory               *
           ************************************************************
------------------------------------------------------------------------------
                         ORCA SCF GRADIENT CALCULATION
------------------------------------------------------------------------------

 ... reading COSX grid (gridx3)
Gradient of the Kohn-Sham DFT energy:
Kohn-Sham wavefunction type      ... RKS
Hartree-Fock exchange scaling    ...    0.420
Number of operators              ...    1
Number of atoms                  ...   21
Basis set dimensions             ...  175
Integral neglect threshold       ... 2.5e-11
Integral primitive cutoff        ... 2.5e-12
SHARK Integral package           ... ON

Nuc. rep. gradient       (SHARK) ... done (  0.0 sec)
HCore & Overlap gradient (SHARK) ... done (  0.1 sec)
RI-J gradient            (SHARK) ... done (  0.4 sec)
COSX-gradient                    ... done (  2.0 sec)
Exchange-correlation gradient    ... done
Dispersion correction            ... done
gCP correction                   ... done

------------------
CARTESIAN GRADIENT
------------------

   1   Sc  :    0.013233728   -0.027499686    0.014007602
   2   C   :    0.001719106   -0.002469434    0.000254865
   3   N   :   -0.003274166   -0.000893013    0.002698136
   4   C   :    0.003412096    0.001927983   -0.003439392
   5   C   :   -0.001019448   -0.001636370   -0.003036210
   6   N   :   -0.001312289    0.001790367    0.005151743
   7   C   :   -0.001646342   -0.003333544   -0.005603759
   8   H   :   -0.001091294    0.001634761    0.003247339
   9   H   :    0.002250039   -0.000360147    0.001806211
  10   H   :    0.000384644    0.000874428   -0.001236624
  11   C   :    0.001786595    0.002068469   -0.000993419
  12   H   :   -0.001293467   -0.000870790    0.000649457
  13   H   :    0.000176082    0.000487497   -0.000259842
  14   H   :    0.000345775   -0.000186454    0.000807472
  15   H   :    0.001248678    0.000501744   -0.002089268
  16   H   :    0.000769733   -0.000158809   -0.000399304
  17   C   :   -0.003517793    0.011150523   -0.007369694
  18   H   :   -0.006122197    0.009240725   -0.001457668
  19   H   :   -0.010059392   -0.004390637   -0.002177212
  20   H   :   -0.002306743    0.003355504   -0.004051498
  21   H   :    0.006019127    0.008549542    0.003740021

Difference to translation invariance:
           :   -0.0002975262   -0.0002173410    0.0002489552

Difference to rotation invariance:
           :   -0.0019768377    0.0001310453   -0.0000717438

Norm of the cartesian gradient     ...    0.0437556543
RMS gradient                       ...    0.0055126943
MAX gradient                       ...    0.0274996862

-------
TIMINGS
-------

Total SCF gradient time            ...        3.147 sec

One electron gradient       ....       0.056 sec  (  1.8%)
RI-J Coulomb gradient       ....       0.363 sec  ( 11.5%)
COSX gradient               ....       1.958 sec  ( 62.2%)
XC gradient                 ....       0.438 sec  ( 13.9%)

Maximum memory used throughout the entire SCFGRAD-calculation: 43.0 MB


           ************************************************************
           *        Program running with 8 parallel MPI-processes     *
           *              working on a common directory               *
           ************************************************************

-------------------------------------------------------------------------------
                               ORCA SCF HESSIAN
-------------------------------------------------------------------------------

                   --------- SHARK INITIALIZATION DONE ---------

Hessian of the Kohn-Sham DFT energy:
Kohn-Sham wavefunction type                      ... RKS
Hartree-Fock exchange scaling                    ...    0.420
Number of operators                              ...    1
Number of atoms                                  ...   21
Basis set dimensions                             ...  175
Integral neglect threshold                       ... 2.5e-11
Integral primitive cutoff                        ... 2.5e-12

Setting up DFT Hessian calculations              ... 

HESS GRID
---------

General Integration Accuracy     IntAcc      ... 4.388
Radial Grid Type                 RadialGrid  ... OptM3 with GC (2021)
Angular Grid (max. ang.)         AngularGrid ... 4 (Lebedev-302)
Angular grid pruning method      GridPruning ... 4 (adaptive)
Weight generation scheme         WeightScheme... Becke
Basis function cutoff            BFCut       ... 1.0000e-11
Integration weight cutoff        WCut        ... 1.0000e-14
Angular grids for H and He will be reduced by one unit
Partially contracted basis set               ... off
Rotationally invariant grid construction     ... off

Total number of grid points                  ...    97711
Total number of batches                      ...     1539
Average number of points per batch           ...       63
Average number of grid points per atom       ...     4653

Building densities                               ... done   (      0.0 sec)
Calculating rho(r) on the grid                   ... done   (      0.1 sec)
Building xc-kernel on the grid                   ... done   (      0.0 sec)
                                                     done   (      0.7 sec)

Nuclear repulsion Hessian  (SHARK)               ... done   (      0.0 sec)

----------------------------------------------
Forming right-hand sides of CP-SCF equations     ...
----------------------------------------------
One electron integral derivatives  (SHARK)       ... done   (      0.1 sec)
Transforming the overlap derivative matrices     ... done   (      0.0 sec)
Making the Q(x) pseudodensities                  ... done   (      0.0 sec)
Adding the E*S(x)*S(y) terms to the Hessian      ... done   (      0.0 sec)
Calculating energy weighted overlap derivatives  ... done   (      0.0 sec)
Two electron integral derivatives (SHARK-RI)     ... done   (      6.7 sec)
Exchange-correlation integral derivatives        ... done   (      9.5 sec)
tr(F(y)Q(x)) contribution to the Hessian         ... done   (      0.0 sec)
Response fock operator R(S(x)) (SHARK-RI)        ... done   (      7.1 sec)
XC Response fock operator R(S(x))                ... done   (      3.9 sec)
tr(F(y)S(x)) contribution to the Hessian         ... done   (      0.0 sec)
Transforming and finalizing RHSs                 ... done   (      0.1 sec)

----------------------------------------------
Solving the CP-SCF equations (RI)                ...
----------------------------------------------
     CP-SCF ITERATION   0:   1.6784e-01 (   2.5 sec   0/ 63 done)
     CP-SCF ITERATION   1:   8.7397e-02 (   2.6 sec   0/ 63 done)
     CP-SCF ITERATION   2:   6.5443e-02 (   2.6 sec   0/ 63 done)
     CP-SCF ITERATION   3:   3.3845e-02 (   2.6 sec   0/ 63 done)
     CP-SCF ITERATION   4:   2.0135e-02 (   2.6 sec   0/ 63 done)
     CP-SCF ITERATION   5:   1.0977e-02 (   2.6 sec   0/ 63 done)
     CP-SCF ITERATION   6:   7.1421e-03 (   2.6 sec   1/ 63 done)
     CP-SCF ITERATION   7:   4.5692e-03 (   2.6 sec   3/ 63 done)
     CP-SCF ITERATION   8:   2.6521e-03 (   2.5 sec  13/ 63 done)
     CP-SCF ITERATION   9:   1.6503e-03 (   2.2 sec  22/ 63 done)
     CP-SCF ITERATION  10:   8.9030e-04 (   1.9 sec  29/ 63 done)
     CP-SCF ITERATION  11:   4.9483e-04 (   1.7 sec  38/ 63 done)
     CP-SCF ITERATION  12:   3.0416e-04 (   1.5 sec  53/ 63 done)
     CP-SCF ITERATION  13:   1.6011e-04 (   0.8 sec  60/ 63 done)
     CP-SCF ITERATION  14:   5.4528e-05 (   0.6 sec  63/ 63 done)
                    *** THE CP-SCF HAS CONVERGED ***

                                                 ... done   (     32.3 sec)
Forming perturbed density Hessian contributions  ... done   (      0.0 sec)
2nd integral derivative contribs (SHARK-RI)      ... done   (     19.8 sec)
Exchange-correlation Hessian                     ... done   (      6.9 sec)
Dispersion correction in the Hessian             ... done   (      0.6 sec)
gCP correction in the Hessian                    ... done   (      0.2 sec)
Dipole derivatives                               ... (center of mass:  0.641953, -0.487846 -0.312320)done   (      0.1 sec)

Total SCF Hessian time: 0 days 0 hours 1 min 28 sec 

Writing the Hessian file to the disk             ... done


Maximum memory used throughout the entire SCFHESS-calculation: 123.0 MB

-----------------------
VIBRATIONAL FREQUENCIES
-----------------------

Scaling factor for frequencies =  1.000000000  (already applied!)

   0:         0.00 cm**-1
   1:         0.00 cm**-1
   2:         0.00 cm**-1
   3:         0.00 cm**-1
   4:         0.00 cm**-1
   5:         0.00 cm**-1
   6:     -1045.42 cm**-1 ***imaginary mode***
   7:      -274.60 cm**-1 ***imaginary mode***
   8:      -131.00 cm**-1 ***imaginary mode***
   9:       -38.51 cm**-1 ***imaginary mode***
  10:        75.41 cm**-1
  11:        84.08 cm**-1
  12:        90.66 cm**-1
  13:       119.75 cm**-1
  14:       175.94 cm**-1
  15:       209.95 cm**-1
  16:       237.76 cm**-1
  17:       289.35 cm**-1
  18:       309.60 cm**-1
  19:       336.72 cm**-1
  20:       468.11 cm**-1
  21:       568.04 cm**-1
  22:       644.05 cm**-1
  23:       647.21 cm**-1
  24:       695.77 cm**-1
  25:       761.20 cm**-1
  26:       780.21 cm**-1
  27:       783.26 cm**-1
  28:       907.50 cm**-1
  29:      1068.35 cm**-1
  30:      1089.44 cm**-1
  31:      1131.38 cm**-1
  32:      1144.88 cm**-1
  33:      1174.53 cm**-1
  34:      1183.47 cm**-1
  35:      1186.15 cm**-1
  36:      1285.56 cm**-1
  37:      1291.71 cm**-1
  38:      1438.86 cm**-1
  39:      1456.18 cm**-1
  40:      1468.87 cm**-1
  41:      1482.61 cm**-1
[...]
Integral neglect threshold       ... 2.5e-11
Integral primitive cutoff        ... 2.5e-12
SHARK Integral package           ... ON

Nuc. rep. gradient       (SHARK) ... done (  0.0 sec)
HCore & Overlap gradient (SHARK) ... done (  0.1 sec)
RI-J gradient            (SHARK) ... done (  0.4 sec)
COSX-gradient                    ... done (  1.9 sec)
Exchange-correlation gradient    ... done
Dispersion correction            ... done
gCP correction                   ... done

------------------
CARTESIAN GRADIENT
------------------

   1   Sc  :   -0.000073909    0.000025086    0.000006747
   2   C   :   -0.000048461    0.000024665    0.000006478
   3   N   :   -0.000040927    0.000021956   -0.000012818
   4   C   :   -0.000017472   -0.000016419    0.000006699
   5   C   :   -0.000026033   -0.000002312    0.000005135
   6   N   :   -0.000027150    0.000000303    0.000020675
   7   C   :   -0.000052654    0.000014953    0.000007614
   8   H   :   -0.000049906    0.000010887    0.000023600
   9   H   :   -0.000054599    0.000025229    0.000016877
  10   H   :   -0.000045430    0.000019900    0.000010481
  11   C   :   -0.000021711    0.000000137    0.000014009
  12   H   :   -0.000027076    0.000023240   -0.000005995
  13   H   :   -0.000027792    0.000007299   -0.000010636
  14   H   :   -0.000023036    0.000008822   -0.000013637
  15   H   :   -0.000015184   -0.000014146    0.000000752
  16   H   :   -0.000026972   -0.000009092    0.000011734
  17   C   :   -0.000077005    0.000027103    0.000043559
  18   H   :   -0.000068627    0.000060785    0.000015148
  19   H   :   -0.000070329    0.000071741    0.000011273
  20   H   :   -0.000064967    0.000032333    0.000030433
  21   H   :   -0.000063460    0.000035163   -0.000001704

Difference to translation invariance:
           :   -0.0009227010    0.0003676334    0.0001864235

Difference to rotation invariance:
           :    0.0022774330    0.0012731280    0.0008792869

Norm of the cartesian gradient     ...    0.0002657206
RMS gradient                       ...    0.0000334776
MAX gradient                       ...    0.0000770046

-------
TIMINGS
-------

Total SCF gradient time            ...        3.030 sec

One electron gradient       ....       0.055 sec  (  1.8%)
RI-J Coulomb gradient       ....       0.357 sec  ( 11.8%)
COSX gradient               ....       1.853 sec  ( 61.2%)
XC gradient                 ....       0.437 sec  ( 14.4%)

Maximum memory used throughout the entire SCFGRAD-calculation: 43.0 MB

                            ***************************************
                            *     ORCA property calculations      *
                            ***************************************

                                    ---------------------
                                    Active property flags
                                    ---------------------
   (+) Dipole Moment


------------------------------------------------------------------------------
                       ORCA ELECTRIC PROPERTIES CALCULATION
------------------------------------------------------------------------------

Dipole Moment Calculation                       ... on
Quadrupole Moment Calculation                   ... off
Polarizability Calculation                      ... off
GBWName                                         ... reaction-5-cineb10_optts_Compound_2.gbw
Electron density                                ... reaction-5-cineb10_optts_Compound_2.scfp
The origin for moment calculation is the CENTER OF MASS  = ( 0.434195, -0.096418 -0.208480)

-------------
DIPOLE MOMENT
-------------
                                X             Y             Z
Electronic contribution:      5.63273      -0.90060      -2.72694
Nuclear contribution   :     -4.95289       1.04511       2.72675
                        -----------------------------------------
Total Dipole Moment    :      0.67984       0.14451      -0.00018
                        -----------------------------------------
Magnitude (a.u.)       :      0.69503
Magnitude (Debye)      :      1.76662



--------------------
Rotational spectrum 
--------------------
 
Rotational constants in cm-1:     0.062910     0.026748     0.019910 
Rotational constants in MHz :  1885.997161   801.870490   596.899497 

 Dipole components along the rotational axes: 
x,y,z [a.u.] :    -0.066418     0.481025    -0.497260 
x,y,z [Debye]:    -0.168821     1.222668    -1.263935 

 



--------------------------------------------------------------------------------
                   Intrinsic Reaction Coordinate Calculation
--------------------------------------------------------------------------------

System:
Nr. of atoms                        .... 21
Algorithm: SD (steepest descent step) plus correction
Settings:
Max. no of cycles        MaxIter    .... 600
Direction                           .... Forward and backward
Initial displacement Hessian type   .... Read
Hessian Filename                    .... reaction-5-cineb10_optts_Compound_1.hess
Following Hessian mode              .... 0
Initial displacement type           .... Energy
  Initial displacement energy change.... 2.000 mEh
Coordinate system following type    .... Cartesian
Length of steepest descent step     .... 0.150 bohr
Do parabolic fit 
  if SD step is uphill              .... YES
Do Correction to SD step            .... YES
Scaling for length of correction
  compared to SD step               .... 0.333
Do parabolic fit to SD correction   .... YES
Only interpolate for parabolic fit  .... YES
Do update to length of
  SD step and correction            .... YES
Convergence Tolerances:
  Max. Gradient            TolMAXG  ....  2.0000e-03 Eh/bohr
  RMS Gradient             TolRMSG  ....  5.0000e-04 Eh/bohr
Storing full IRC trajectory in      .... reaction-5-cineb10_optts_Compound_2_IRC_Full_trj.xyz
Storing forward trajectory in       .... reaction-5-cineb10_optts_Compound_2_IRC_F_trj.xyz
Storing backward trajectory in      .... reaction-5-cineb10_optts_Compound_2_IRC_B_trj.xyz


 ...good, the file reaction-5-cineb10_optts_Compound_1.hess exists
Reading the hessian file           ...... done
Determining length of initial displacement:
  Requested energy change (quadratic behavior): 2.000 mEh
  Resulting scaling factor for initial displacement along normalized TS mode: 0.2705

         *************************************************************
         *                          FORWARD IRC                      *
         *************************************************************

Iteration    E(Eh)      dE(kcal/mol)  max(|G|)   RMS(G) 
Convergence thresholds                0.002000  0.000500            
    0     -1104.435242   -1.143609    0.010468  0.002541
    1     -1104.438059   -2.911453    0.015745  0.002970
    2     -1104.441775   -5.243173    0.018205  0.003421
    3     -1104.445873   -7.814512    0.019491  0.003618
    4     -1104.450089   -10.460203    0.019445  0.003606
    5     -1104.454262   -13.079094    0.018731  0.003498
    6     -1104.458257   -15.585805    0.017531  0.003324
    7     -1104.462002   -17.935918    0.016187  0.003102
    8     -1104.465474   -20.114444    0.014695  0.002856
    9     -1104.468655   -22.110724    0.013286  0.002625
   10     -1104.471508   -23.900604    0.011812  0.002427
   11     -1104.473983   -25.454039    0.010549  0.002354
   12     -1104.475992   -26.714747    0.009190  0.002594
   13     -1104.476388   -26.963016    0.009023  0.001994
   14     -1104.477343   -27.562470    0.008439  0.001720
   15     -1104.478291   -28.157122    0.007738  0.001575
   16     -1104.479175   -28.712196    0.007066  0.001479
   17     -1104.479966   -29.208466    0.006392  0.001336
   18     -1104.480696   -29.666608    0.005736  0.001219
   19     -1104.481349   -30.076180    0.005072  0.001093
   20     -1104.481937   -30.445384    0.004441  0.001010
   21     -1104.482429   -30.754043    0.003933  0.001083
   22     -1104.482555   -30.833193    0.003689  0.001004
   23     -1104.482648   -30.891548    0.003585  0.000856
   24     -1104.482762   -30.962680    0.003447  0.000791
   25     -1104.482876   -31.034283    0.003301  0.000771
   26     -1104.482986   -31.103084    0.003160  0.000743
   27     -1104.483092   -31.169997    0.003021  0.000720
   28     -1104.483195   -31.234771    0.002885  0.000697
   29     -1104.483295   -31.297422    0.002752  0.000673
   30     -1104.483392   -31.358332    0.002621  0.000656
   31     -1104.483486   -31.416959    0.002497  0.000631
   32     -1104.483577   -31.474296    0.002373  0.000618
   33     -1104.483665   -31.529237    0.002257  0.000593
   34     -1104.483751   -31.583234    0.002141  0.000578
   35     -1104.483834   -31.635252    0.002033  0.000558
   36     -1104.483915   -31.686041    0.001928  0.000545
   37     -1104.483993   -31.735216    0.001829  0.000528
   38     -1104.484069   -31.783177    0.001779  0.000513
   39     -1104.484144   -31.830100    0.001763  0.000506
   40     -1104.484216   -31.875268    0.001746  0.000488

                      ***********************HURRAY********************
                      ***            THE IRC HAS CONVERGED          ***
                      *************************************************


         *************************************************************
         *                          BACKWARD IRC                     *
         *************************************************************

Iteration    E(Eh)      dE(kcal/mol)  max(|G|)   RMS(G) 
Convergence thresholds                0.002000  0.000500            
    0     -1104.435374   -1.226462    0.012096  0.002894
    1     -1104.438719   -3.325710    0.017536  0.003449
    2     -1104.442751   -5.855337    0.016996  0.003474
    3     -1104.446442   -8.171810    0.011906  0.002935
    4     -1104.449328   -9.982761    0.007526  0.002241
    5     -1104.451364   -11.259986    0.005165  0.001681
    6     -1104.452799   -12.160863    0.004788  0.001686
    7     -1104.452981   -12.274697    0.004506  0.001323
    8     -1104.453265   -12.453104    0.004294  0.001267
    9     -1104.453564   -12.640652    0.004235  0.001087
   10     -1104.453878   -12.838082    0.004073  0.001046
   11     -1104.454178   -13.025885    0.004050  0.001005
   12     -1104.454466   -13.206829    0.003883  0.000970
   13     -1104.454745   -13.381875    0.003873  0.000940
   14     -1104.455015   -13.551457    0.003721  0.000912
   15     -1104.455279   -13.716939    0.003713  0.000891
   16     -1104.455536   -13.878138    0.003584  0.000869
   17     -1104.455788   -14.036686    0.003575  0.000856
   18     -1104.456036   -14.191887    0.003462  0.000840
   19     -1104.456281   -14.345465    0.003450  0.000831
   20     -1104.456522   -14.496671    0.003349  0.000821
   21     -1104.456761   -14.646716    0.003340  0.000814
   22     -1104.456998   -14.795554    0.003257  0.000808
   23     -1104.457234   -14.943771    0.003247  0.000804
   24     -1104.457469   -15.091342    0.003184  0.000801
   25     -1104.457704   -15.238633    0.003154  0.000799
   26     -1104.457938   -15.385659    0.003106  0.000798
   27     -1104.458172   -15.532586    0.003083  0.000797
   28     -1104.458406   -15.679427    0.003044  0.000797
   29     -1104.458640   -15.826255    0.003015  0.000796
   30     -1104.458874   -15.973060    0.002979  0.000796
   31     -1104.459108   -16.119777    0.002956  0.000795
   32     -1104.459342   -16.266254    0.002914  0.000793
   33     -1104.459575   -16.412466    0.002890  0.000791
   34     -1104.459807   -16.558082    0.002842  0.000788
   35     -1104.460038   -16.703019    0.002821  0.000783
   36     -1104.460267   -16.846980    0.002826  0.000778
   37     -1104.460494   -16.989722    0.002822  0.000771
   38     -1104.460719   -17.130844    0.002799  0.000763
   39     -1104.460941   -17.270053    0.002771  0.000754
   40     -1104.461159   -17.406853    0.002718  0.000745
   41     -1104.461372   -17.540661    0.002666  0.000736
   42     -1104.461580   -17.670771    0.002583  0.000731
   43     -1104.461779   -17.795759    0.002514  0.000729
   44     -1104.461968   -17.914404    0.002402  0.000747
   45     -1104.462142   -18.023368    0.002352  0.000769
   46     -1104.462300   -18.122895    0.002219  0.000825
   47     -1104.462363   -18.162342    0.002229  0.000704
   48     -1104.462447   -18.215060    0.002202  0.000619
   49     -1104.462537   -18.271630    0.002157  0.000609
   50     -1104.462625   -18.326866    0.002127  0.000596
   51     -1104.462711   -18.380928    0.002078  0.000583
   52     -1104.462796   -18.433928    0.002046  0.000572
   53     -1104.462878   -18.485507    0.001996  0.000557
   54     -1104.462959   -18.536103    0.001961  0.000545
   55     -1104.463037   -18.585305    0.001909  0.000532
   56     -1104.463114   -18.633361    0.001873  0.000518
   57     -1104.463188   -18.680131    0.001819  0.000505
   58     -1104.463261   -18.725749    0.001780  0.000492

                      ***********************HURRAY********************
                      ***            THE IRC HAS CONVERGED          ***
                      *************************************************


---------------------------------------------------------------
                       IRC PATH SUMMARY              
---------------------------------------------------------------
All gradients are in Eh/Bohr.

Step        E(Eh)      dE(kcal/mol)  max(|G|)   RMS(G) 
   1     -1104.463261   -18.725749    0.001780  0.000492
   2     -1104.463188   -18.680131    0.001819  0.000505
   3     -1104.463114   -18.633361    0.001873  0.000518
   4     -1104.463037   -18.585305    0.001909  0.000532
   5     -1104.462959   -18.536103    0.001961  0.000545
   6     -1104.462878   -18.485507    0.001996  0.000557
   7     -1104.462796   -18.433928    0.002046  0.000572
   8     -1104.462711   -18.380928    0.002078  0.000583
   9     -1104.462625   -18.326866    0.002127  0.000596
  10     -1104.462537   -18.271630    0.002157  0.000609
  11     -1104.462447   -18.215060    0.002202  0.000619
  12     -1104.462363   -18.162342    0.002229  0.000704
  13     -1104.462300   -18.122895    0.002219  0.000825
  14     -1104.462142   -18.023368    0.002352  0.000769
  15     -1104.461968   -17.914404    0.002402  0.000747
  16     -1104.461779   -17.795759    0.002514  0.000729
  17     -1104.461580   -17.670771    0.002583  0.000731
  18     -1104.461372   -17.540661    0.002666  0.000736
  19     -1104.461159   -17.406853    0.002718  0.000745
  20     -1104.460941   -17.270053    0.002771  0.000754
  21     -1104.460719   -17.130844    0.002799  0.000763
  22     -1104.460494   -16.989722    0.002822  0.000771
  23     -1104.460267   -16.846980    0.002826  0.000778
  24     -1104.460038   -16.703019    0.002821  0.000783
  25     -1104.459807   -16.558082    0.002842  0.000788
  26     -1104.459575   -16.412466    0.002890  0.000791
  27     -1104.459342   -16.266254    0.002914  0.000793
  28     -1104.459108   -16.119777    0.002956  0.000795
  29     -1104.458874   -15.973060    0.002979  0.000796
  30     -1104.458640   -15.826255    0.003015  0.000796
  31     -1104.458406   -15.679427    0.003044  0.000797
  32     -1104.458172   -15.532586    0.003083  0.000797
  33     -1104.457938   -15.385659    0.003106  0.000798
  34     -1104.457704   -15.238633    0.003154  0.000799
  35     -1104.457469   -15.091342    0.003184  0.000801
  36     -1104.457234   -14.943771    0.003247  0.000804
  37     -1104.456998   -14.795554    0.003257  0.000808
  38     -1104.456761   -14.646716    0.003340  0.000814
  39     -1104.456522   -14.496671    0.003349  0.000821
  40     -1104.456281   -14.345465    0.003450  0.000831
  41     -1104.456036   -14.191887    0.003462  0.000840
  42     -1104.455788   -14.036686    0.003575  0.000856
  43     -1104.455536   -13.878138    0.003584  0.000869
  44     -1104.455279   -13.716939    0.003713  0.000891
  45     -1104.455015   -13.551457    0.003721  0.000912
  46     -1104.454745   -13.381875    0.003873  0.000940
  47     -1104.454466   -13.206829    0.003883  0.000970
  48     -1104.454178   -13.025885    0.004050  0.001005
  49     -1104.453878   -12.838082    0.004073  0.001046
  50     -1104.453564   -12.640652    0.004235  0.001087
  51     -1104.453265   -12.453104    0.004294  0.001267
  52     -1104.452981   -12.274697    0.004506  0.001323
  53     -1104.452799   -12.160863    0.004788  0.001686
  54     -1104.451364   -11.259986    0.005165  0.001681
  55     -1104.449328   -9.982761    0.007526  0.002241
  56     -1104.446442   -8.171810    0.011906  0.002935
  57     -1104.442751   -5.855337    0.016996  0.003474
  58     -1104.438719   -3.325710    0.017536  0.003449
  59     -1104.435374   -1.226462    0.012096  0.002894
  60     -1104.433420    0.000000    0.000077  0.000033 <= TS
  61     -1104.435242   -1.143609    0.010468  0.002541
  62     -1104.438059   -2.911453    0.015745  0.002970
  63     -1104.441775   -5.243173    0.018205  0.003421
  64     -1104.445873   -7.814512    0.019491  0.003618
  65     -1104.450089   -10.460203    0.019445  0.003606
  66     -1104.454262   -13.079094    0.018731  0.003498
  67     -1104.458257   -15.585805    0.017531  0.003324
  68     -1104.462002   -17.935918    0.016187  0.003102
  69     -1104.465474   -20.114444    0.014695  0.002856
  70     -1104.468655   -22.110724    0.013286  0.002625
  71     -1104.471508   -23.900604    0.011812  0.002427
  72     -1104.473983   -25.454039    0.010549  0.002354
  73     -1104.475992   -26.714747    0.009190  0.002594
  74     -1104.476388   -26.963016    0.009023  0.001994
  75     -1104.477343   -27.562470    0.008439  0.001720
  76     -1104.478291   -28.157122    0.007738  0.001575
  77     -1104.479175   -28.712196    0.007066  0.001479
  78     -1104.479966   -29.208466    0.006392  0.001336
  79     -1104.480696   -29.666608    0.005736  0.001219
  80     -1104.481349   -30.076180    0.005072  0.001093
  81     -1104.481937   -30.445384    0.004441  0.001010
  82     -1104.482429   -30.754043    0.003933  0.001083
  83     -1104.482555   -30.833193    0.003689  0.001004
  84     -1104.482648   -30.891548    0.003585  0.000856
  85     -1104.482762   -30.962680    0.003447  0.000791
  86     -1104.482876   -31.034283    0.003301  0.000771
  87     -1104.482986   -31.103084    0.003160  0.000743
  88     -1104.483092   -31.169997    0.003021  0.000720
  89     -1104.483195   -31.234771    0.002885  0.000697
  90     -1104.483295   -31.297422    0.002752  0.000673
  91     -1104.483392   -31.358332    0.002621  0.000656
  92     -1104.483486   -31.416959    0.002497  0.000631
  93     -1104.483577   -31.474296    0.002373  0.000618
  94     -1104.483665   -31.529237    0.002257  0.000593
  95     -1104.483751   -31.583234    0.002141  0.000578
  96     -1104.483834   -31.635252    0.002033  0.000558
  97     -1104.483915   -31.686041    0.001928  0.000545
  98     -1104.483993   -31.735216    0.001829  0.000528
  99     -1104.484069   -31.783177    0.001779  0.000513
 100     -1104.484144   -31.830100    0.001763  0.000506
 101     -1104.484216   -31.875268    0.001746  0.000488

Timings for individual modules:

Sum of individual times         ...     5522.560 sec (=  92.043 min)
GTO integral calculation        ...      193.079 sec (=   3.218 min)   3.5 %
SCF iterations                  ...     4671.461 sec (=  77.858 min)  84.6 %
SCF Gradient evaluation         ...      658.020 sec (=  10.967 min)  11.9 %
================================================================================

----- Orbital basis set information -----
Your calculation utilizes the basis: def2-SVP
   F. Weigend and R. Ahlrichs, Phys. Chem. Chem. Phys. 7, 3297 (2005).

                             ****ORCA TERMINATED NORMALLY****
TOTAL RUN TIME: 0 days 1 hours 46 minutes 15 seconds 70 msec
