
                                 *****************
                                 * O   R   C   A *
                                 *****************

                                            #,                                       
                                            ###                                      
                                            ####                                     
                                            #####                                    
                                            ######                                   
                                           ########,                                 
                                     ,,################,,,,,                         
                               ,,#################################,,                 
                          ,,##########################################,,             
                       ,#########################################, ''#####,          
                    ,#############################################,,   '####,        
                  ,##################################################,,,,####,       
                ,###########''''           ''''###############################       
              ,#####''   ,,,,##########,,,,          '''####'''          '####       
            ,##' ,,,,###########################,,,                        '##       
           ' ,,###''''                  '''############,,,                           
         ,,##''                                '''############,,,,        ,,,,,,###''
      ,#''                                            '''#######################'''  
     '                                                          ''''####''''         
             ,#######,   #######,   ,#######,      ##                                
            ,#'     '#,  ##    ##  ,#'     '#,    #''#        ######   ,####,        
            ##       ##  ##   ,#'  ##            #'  '#       #        #'  '#        
            ##       ##  #######   ##           ,######,      #####,   #    #        
            '#,     ,#'  ##    ##  '#,     ,#' ,#      #,         ##   #,  ,#        
             '#######'   ##     ##  '#######'  #'      '#     #####' # '####'        



                  #######################################################
                  #                        -***-                        #
                  #          Department of theory and spectroscopy      #
                  #    Directorship and core code : Frank Neese         #
                  #        Max Planck Institute fuer Kohlenforschung    #
                  #                Kaiser Wilhelm Platz 1               #
                  #                 D-45470 Muelheim/Ruhr               #
                  #                      Germany                        #
                  #                                                     #
                  #                  All rights reserved                #
                  #                        -***-                        #
                  #######################################################


                         Program Version 5.0.4 -  RELEASE  -


 With contributions from (in alphabetic order):
   Daniel Aravena         : Magnetic Suceptibility
   Michael Atanasov       : Ab Initio Ligand Field Theory (pilot matlab implementation)
   Alexander A. Auer      : GIAO ZORA, VPT2 properties, NMR spectrum
   Ute Becker             : Parallelization
   Giovanni Bistoni       : ED, misc. LED, open-shell LED, HFLD
   Martin Brehm           : Molecular dynamics
   Dmytro Bykov           : SCF Hessian
   Vijay G. Chilkuri      : MRCI spin determinant printing, contributions to CSF-ICE
   Dipayan Datta          : RHF DLPNO-CCSD density
   Achintya Kumar Dutta   : EOM-CC, STEOM-CC
   Dmitry Ganyushin       : Spin-Orbit,Spin-Spin,Magnetic field MRCI
   Miquel Garcia          : C-PCM and meta-GGA Hessian, CC/C-PCM, Gaussian charge scheme
   Yang Guo               : DLPNO-NEVPT2, F12-NEVPT2, CIM, IAO-localization
   Andreas Hansen         : Spin unrestricted coupled pair/coupled cluster methods
   Benjamin Helmich-Paris : MC-RPA, TRAH-SCF, COSX integrals
   Lee Huntington         : MR-EOM, pCC
   Robert Izsak           : Overlap fitted RIJCOSX, COSX-SCS-MP3, EOM
   Marcus Kettner         : VPT2
   Christian Kollmar      : KDIIS, OOCD, Brueckner-CCSD(T), CCSD density, CASPT2, CASPT2-K
   Simone Kossmann        : Meta GGA functionals, TD-DFT gradient, OOMP2, MP2 Hessian
   Martin Krupicka        : Initial AUTO-CI
   Lucas Lang             : DCDCAS
   Marvin Lechner         : AUTO-CI (C++ implementation), FIC-MRCC
   Dagmar Lenk            : GEPOL surface, SMD
   Dimitrios Liakos       : Extrapolation schemes; Compound Job, initial MDCI parallelization
   Dimitrios Manganas     : Further ROCIS development; embedding schemes
   Dimitrios Pantazis     : SARC Basis sets
   Anastasios Papadopoulos: AUTO-CI, single reference methods and gradients
   Taras Petrenko         : DFT Hessian,TD-DFT gradient, ASA, ECA, R-Raman, ABS, FL, XAS/XES, NRVS
   Peter Pinski           : DLPNO-MP2, DLPNO-MP2 Gradient
   Christoph Reimann      : Effective Core Potentials
   Marius Retegan         : Local ZFS, SOC
   Christoph Riplinger    : Optimizer, TS searches, QM/MM, DLPNO-CCSD(T), (RO)-DLPNO pert. Triples
   Tobias Risthaus        : Range-separated hybrids, TD-DFT gradient, RPA, STAB
   Michael Roemelt        : Original ROCIS implementation
   Masaaki Saitow         : Open-shell DLPNO-CCSD energy and density
   Barbara Sandhoefer     : DKH picture change effects
   Avijit Sen             : IP-ROCIS
   Kantharuban Sivalingam : CASSCF convergence, NEVPT2, FIC-MRCI
   Bernardo de Souza      : ESD, SOC TD-DFT
   Georgi Stoychev        : AutoAux, RI-MP2 NMR, DLPNO-MP2 response
   Willem Van den Heuvel  : Paramagnetic NMR
   Boris Wezisla          : Elementary symmetry handling
   Frank Wennmohs         : Technical directorship


 We gratefully acknowledge several colleagues who have allowed us to
 interface, adapt or use parts of their codes:
   Stefan Grimme, W. Hujo, H. Kruse, P. Pracht,  : VdW corrections, initial TS optimization,
                  C. Bannwarth, S. Ehlert          DFT functionals, gCP, sTDA/sTD-DF
   Ed Valeev, F. Pavosevic, A. Kumar             : LibInt (2-el integral package), F12 methods
   Garnet Chan, S. Sharma, J. Yang, R. Olivares  : DMRG
   Ulf Ekstrom                                   : XCFun DFT Library
   Mihaly Kallay                                 : mrcc  (arbitrary order and MRCC methods)
   Jiri Pittner, Ondrej Demel                    : Mk-CCSD
   Frank Weinhold                                : gennbo (NPA and NBO analysis)
   Christopher J. Cramer and Donald G. Truhlar   : smd solvation model
   Lars Goerigk                                  : TD-DFT with DH, B97 family of functionals
   V. Asgeirsson, H. Jonsson                     : NEB implementation
   FAccTs GmbH                                   : IRC, NEB, NEB-TS, DLPNO-Multilevel, CI-OPT
                                                   MM, QMMM, 2- and 3-layer-ONIOM, Crystal-QMMM,
                                                   LR-CPCM, SF, NACMEs, symmetry and pop. for TD-DFT,
                                                   nearIR, NL-DFT gradient (VV10), updates on ESD,
                                                   ML-optimized integration grids
   S Lehtola, MJT Oliveira, MAL Marques          : LibXC Library
   Liviu Ungur et al                             : ANISO software


 Your calculation uses the libint2 library for the computation of 2-el integrals
 For citations please refer to: http://libint.valeyev.net

 Your ORCA version has been built with support for libXC version: 5.1.0
 For citations please refer to: https://tddft.org/programs/libxc/

 This ORCA versions uses:
   CBLAS   interface :  Fast vector & matrix operations
   LAPACKE interface :  Fast linear algebra routines
   SCALAPACK package :  Parallel linear algebra routines
   Shared memory     :  Shared parallel matrices
   BLAS/LAPACK       :  OpenBLAS 0.3.15  USE64BITINT DYNAMIC_ARCH NO_AFFINITY SkylakeX SINGLE_THREADED
        Core in use  :  SkylakeX
   Copyright (c) 2011-2014, The OpenBLAS Project




***************************************
The coordinates will be read from file: reaction-7-prod-xtb.xyz
***************************************


Your calculation utilizes the geometrical counterpoise correction gCP
Please cite in your paper:
H.Kruse, S. Grimme J.Chem.Phys., 136, (2012), 154101 
   

Your calculation utilizes the atom-pairwise dispersion correction
with the Becke-Johnson damping scheme (D3BJ)
Cite in your paper:
S.Grimme, S.Ehrlich, L.Goerigk, J Comput Chem, (2011), 32, 1456–1465 
S.Grimme, J.Antony, S.Ehrlich and H.Krieg, J.Chem.Phys., 132, (2010), 154104 
   

Your calculation employs the composite approach PBEh-3c.
Please cite in your paper:
S. Grimme, J. G. Brandenburg, C. Bannwarth, A. Hansen J.Chem.Phys., 143, (2015), 054107 
   

================================================================================

cite the ECPs for Lu [Def2-ECP] as follows:
Ce-Yb(ecp-28): M. Dolg, H. Stoll, H.Preuss, J. Chem. Phys., 1989, 90, 1730-1734.
Y-Cd(ecp-28), Hf-Hg(ecp-46): D. Andrae,U. Haeussermann, M. Dolg, H. Stoll, H. Preuss, Theor. Chim. Acta, 1990, 77, 123-141.
In-Sb(ecp-28), Tl-Bi(ecp-46): B. Metz, H. Stoll, M. Dolg, J. Chem. Phys., 2000, 113, 2563-2569.
Te-Xe(ecp-28), Po-Rn(ecp-46): K. A. Peterson, D. Figgen, E. Goll, H. Stoll, M. Dolg, J. Chem. Phys., 2003, 119, 11113-11123.
Rb(ecp-28), Cs(ecp-46): T. Leininger, A. Nicklass, W. Kuechle, H. Stoll, M. Dolg, A. Bergner, Chem. Phys. Lett., 1996, 255, 274-280.
Sr(ecp-28), Ba(ecp-46): M. Kaupp, P. V. Schleyer, H. Stoll and H. Preuss, J. Chem. Phys., 1991, 94, 1360-1366.
La(ecp-46): M. Dolg, H. Stoll, A. Savin, H. Preuss, Theor. Chim. Acta, 1989, 75, 173-194.
Lu(ecp-28): X. Cao, M. Dolg, J. Chem. Phys., 2001, 115, 7348-7355.

ECP parameters for Lu [Def2-ECP] have been obtained from:
TURBOMOLE (7.0.2)

----- Orbital basis set information -----
Your calculation utilizes the basis: def2-mSVP

----- AuxJ basis set information -----
Your calculation utilizes the auxiliary basis: def2/J
   F. Weigend, Phys. Chem. Chem. Phys. 8, 1057 (2006).

================================================================================
                                        WARNINGS
                       Please study these warnings very carefully!
================================================================================


WARNING: Geometry Optimization
  ===> : Switching off AutoStart
         For restart on a previous wavefunction, please use MOREAD

WARNING: No Hueckel Guess possible with ECP basis!
  ===> : Switching to HCORE guess!

INFO   : the flag for use of the SHARK integral package has been found!

================================================================================
                                       INPUT FILE
================================================================================
NAME = reaction-7-prod-pbeh3c-orca_opt.inp
|  1> ! PBEh-3c OPT pal4
|  2> 
|  3> %geom
|  4>  maxiter 600
|  5> end 
|  6> 
|  7> *xyzfile 0 1 reaction-7-prod-xtb.xyz
|  8> 
|  9>                          ****END OF INPUT****
================================================================================

                       *****************************
                       * Geometry Optimization Run *
                       *****************************

Geometry optimization settings:
Update method            Update   .... BFGS
Choice of coordinates    CoordSys .... Z-matrix Internals
Initial Hessian          InHess   .... Almoef's Model

Convergence Tolerances:
Energy Change            TolE     ....  5.0000e-06 Eh
Max. Gradient            TolMAXG  ....  3.0000e-04 Eh/bohr
RMS Gradient             TolRMSG  ....  1.0000e-04 Eh/bohr
Max. Displacement        TolMAXD  ....  4.0000e-03 bohr
RMS Displacement         TolRMSD  ....  2.0000e-03 bohr
Strict Convergence                ....  False
------------------------------------------------------------------------------
                        ORCA OPTIMIZATION COORDINATE SETUP
------------------------------------------------------------------------------

The optimization will be done in new redundant internal coordinates
Making redundant internal coordinates   ...  (new redundants) done
Evaluating the initial hessian          ...  (Almloef) done
Evaluating the coordinates              ...  done
Calculating the B-matrix                .... done
Calculating the G-matrix                .... done
Diagonalizing the G-matrix              .... done
The first mode is                       ....  727
The number of degrees of freedom        ....   84

    -----------------------------------------------------------------
                    Redundant Internal Coordinates


    -----------------------------------------------------------------
         Definition                    Initial Value    Approx d2E/dq
    -----------------------------------------------------------------
      1. B(C   1,Lu  0)                  2.5876         0.017863   
      2. B(C   2,C   1)                  1.4157         0.568448   
      3. B(C   2,Lu  0)                  2.5957         0.017342   
      4. B(C   3,Lu  0)                  2.6161         0.016088   
      5. B(C   3,C   2)                  1.4111         0.578225   
      6. B(C   4,Lu  0)                  2.5926         0.017542   
      7. B(C   4,C   3)                  1.4116         0.577237   
      8. B(C   5,C   1)                  1.4130         0.574279   
      9. B(C   5,C   4)                  1.4148         0.570412   
     10. B(C   5,Lu  0)                  2.5898         0.017724   
     11. B(H   6,C   4)                  1.0841         0.367995   
     12. B(H   6,Lu  0)                  3.3499         0.000208   
     13. B(H   7,C   5)                  1.0824         0.370330   
     14. B(H   7,Lu  0)                  3.3270         0.000226   
     15. B(H   8,Lu  0)                  3.3336         0.000221   
     16. B(H   8,C   1)                  1.0828         0.369809   
     17. B(H   9,Lu  0)                  3.3612         0.000199   
     18. B(H   9,C   2)                  1.0837         0.368568   
     19. B(H  10,C   3)                  1.0824         0.370275   
     20. B(C  11,Lu  0)                  2.5932         0.017498   
     21. B(C  12,C  11)                  1.4131         0.573969   
     22. B(C  12,Lu  0)                  2.6100         0.016452   
     23. B(C  13,Lu  0)                  2.5881         0.017834   
     24. B(C  13,C   3)                  3.2883         0.000585   
     25. B(C  13,H  10)                  3.2372         0.000135   
     26. B(C  14,Lu  0)                  2.5907         0.017661   
     27. B(C  14,C  13)                  1.4114         0.577468   
     28. B(C  14,C  11)                  1.4137         0.572772   
     29. B(C  14,H  10)                  3.1769         0.000169   
     30. B(C  14,C   3)                  3.2590         0.000652   
     31. B(H  15,C  11)                  1.0834         0.368879   
     32. B(H  15,Lu  0)                  3.3497         0.000208   
     33. B(C  16,C  12)                  1.4135         0.573224   
     34. B(C  16,Lu  0)                  2.5900         0.017709   
     35. B(C  16,C  13)                  1.4148         0.570398   
     36. B(H  17,Lu  0)                  3.3509         0.000207   
     37. B(H  17,C  12)                  1.0816         0.371326   
     38. B(H  18,H  10)                  2.9081         0.000087   
     39. B(H  18,C   3)                  3.2637         0.000123   
     40. B(H  18,Lu  0)                  3.3397         0.000216   
     41. B(H  18,C  14)                  1.0835         0.368761   
     42. B(H  19,H  10)                  3.0324         0.000055   
     43. B(H  19,C   3)                  3.3205         0.000099   
     44. B(H  19,Lu  0)                  3.3375         0.000218   
     45. B(H  19,C  13)                  1.0836         0.368673   
     46. B(H  20,Lu  0)                  3.3545         0.000204   
     47. B(H  20,C  16)                  1.0832         0.369159   
     48. B(C  21,Lu  0)                  3.6935         0.000307   
     49. B(C  21,H  20)                  3.3133         0.000102   
     50. B(C  21,H   9)                  3.5316         0.000046   
     51. B(C  21,H   8)                  3.5459         0.000043   
     52. B(H  22,C  21)                  1.0822         0.370527   
     53. B(H  22,H   9)                  3.5757         0.000007   
     54. B(H  22,H   8)                  3.1968         0.000030   
     55. B(H  23,C  21)                  1.0825         0.370107   
     56. B(H  23,H  20)                  3.3173         0.000019   
     57. B(H  24,C   1)                  3.3438         0.000091   
     58. B(H  24,Lu  0)                  2.8909         0.001122   
     59. B(H  24,C  21)                  1.0966         0.351430   
     60. B(H  24,H  20)                  3.1708         0.000033   
     61. B(H  24,C  16)                  3.3585         0.000087   
     62. B(H  24,H   9)                  3.6471         0.000006   
     63. B(H  24,H   8)                  3.1981         0.000030   
     64. B(H  24,C   2)                  3.5687         0.000040   
     65. B(C  25,Lu  0)                  2.4058         0.034836   
     66. B(C  25,H  24)                  3.0188         0.000301   
     67. B(H  26,Lu  0)                  3.5578         0.000097   
     68. B(H  26,C  21)                  1.0858         0.365751   
     69. B(H  26,H  20)                  2.9093         0.000086   
     70. B(H  26,H  19)                  3.6427         0.000006   
     71. B(H  26,C  16)                  3.3232         0.000099   
     72. B(H  26,C  13)                  3.6954         0.000025   
     73. B(H  26,H   9)                  2.8551         0.000105   
     74. B(H  26,H   8)                  3.6827         0.000005   
     75. B(H  26,C   2)                  3.2900         0.000111   
     76. B(H  26,C   1)                  3.7069         0.000024   
     77. B(H  27,Lu  0)                  3.0080         0.000730   
     78. B(H  27,C  25)                  1.1036         0.342575   
     79. B(H  28,Lu  0)                  3.0455         0.000636   
     80. B(H  28,C  25)                  1.1010         0.345878   
     81. B(H  28,H  24)                  3.0287         0.000056   
     82. B(H  29,Lu  0)                  3.0498         0.000626   
     83. B(H  29,H  17)                  3.1021         0.000042   
     84. B(H  29,C  25)                  1.1011         0.345666   
     85. B(H  29,H  24)                  2.9796         0.000067   
     86. A(C  11,Lu  0,C  13)           52.3815         0.166478   
     87. A(C   4,Lu  0,C  21)          121.5134         0.119919   
     88. A(C   3,Lu  0,C  11)          106.7668         0.164692   
     89. A(C   2,Lu  0,C  21)           71.4372         0.119839   
     90. A(C  13,Lu  0,C  14)           31.6313         0.166640   
     91. A(C   1,Lu  0,C  21)           71.8814         0.120047   
     92. A(C   4,Lu  0,C  12)          138.9931         0.165119   
     93. A(C   3,Lu  0,C  12)          127.8001         0.163643   
     94. A(C   1,Lu  0,C  11)          158.4858         0.166507   
     95. A(C   5,Lu  0,C  21)          102.1085         0.119992   
     96. A(C  11,Lu  0,C  25)          102.6604         0.179156   
     97. A(C  14,Lu  0,C  21)          117.6219         0.119967   
     98. A(C   5,Lu  0,C  11)          135.3398         0.166370   
     99. A(C   4,Lu  0,C  16)          135.0527         0.166398   
    100. A(C   1,Lu  0,C  25)           95.4963         0.179578   
    101. A(C  12,Lu  0,C  21)           92.0799         0.119474   
    102. A(C   5,Lu  0,C  12)          165.6050         0.165297   
    103. A(C  11,Lu  0,C  12)           31.5144         0.165076   
    104. A(C   2,Lu  0,C   3)           31.4146         0.164539   
    105. A(C   2,Lu  0,C  11)          131.6805         0.165989   
    106. A(C   5,Lu  0,C  14)          120.9130         0.166532   
    107. A(C   4,Lu  0,C   5)           31.6861         0.166413   
    108. A(C   3,Lu  0,C  21)          101.2031         0.119320   
    109. A(C   4,Lu  0,C  11)          108.1248         0.166189   
    110. A(C   1,Lu  0,C  12)          162.4959         0.165432   
    111. A(C  12,Lu  0,C  25)           88.9230         0.177906   
    112. A(C   4,Lu  0,C  13)          103.3398         0.166521   
    113. A(C   1,Lu  0,C  13)          117.9005         0.166840   
    114. A(C   3,Lu  0,C  13)           78.3729         0.165018   
    115. A(C   2,Lu  0,C  13)           86.4822         0.166321   
    116. A(C  14,Lu  0,C  25)          134.3099         0.179345   
    117. A(C   1,Lu  0,C  14)          129.0721         0.166669   
    118. A(C   5,Lu  0,C  13)          130.4147         0.166703   
    119. A(C  12,Lu  0,C  16)           31.5418         0.165282   
    120. A(C   1,Lu  0,C   2)           31.7010         0.166350   
    121. A(C  11,Lu  0,C  14)           31.6500         0.166308   
    122. A(C   5,Lu  0,C  25)           90.6659         0.179418   
    123. A(C   4,Lu  0,C  14)           89.2298         0.166351   
    124. A(C   3,Lu  0,C  16)          108.3046         0.164897   
    125. A(C   3,Lu  0,C   5)           52.0437         0.164912   
    126. A(C  13,Lu  0,C  21)           86.2605         0.120035   
    127. A(C  16,Lu  0,C  25)          107.8302         0.179400   
    128. A(C  12,Lu  0,C  13)           52.1669         0.165404   
    129. A(C   3,Lu  0,C  14)           77.4949         0.164851   
    130. A(C  11,Lu  0,C  16)           52.4089         0.166355   
    131. A(C   5,Lu  0,C  16)          158.4393         0.166579   
    132. A(C   1,Lu  0,C   5)           31.6748         0.166732   
    133. A(C  12,Lu  0,C  14)           52.1245         0.165236   
    134. A(C   2,Lu  0,C  25)          125.6501         0.178973   
    135. A(C   1,Lu  0,C  16)          131.9119         0.166717   
    136. A(C  13,Lu  0,C  25)          138.8466         0.179544   
    137. A(C   2,Lu  0,C  12)          136.9668         0.164922   
    138. A(C  16,Lu  0,C  21)           70.6659         0.119986   
    139. A(C   3,Lu  0,C  25)          142.5874         0.177457   
    140. A(C   1,Lu  0,C   3)           52.0875         0.165046   
    141. A(C  21,Lu  0,C  25)           81.9011         0.125113   
    142. A(C   2,Lu  0,C  16)          106.5235         0.166198   
    143. A(C   2,Lu  0,C   5)           52.3593         0.166213   
    144. A(C  11,Lu  0,C  21)          121.7371         0.119902   
    145. A(C   4,Lu  0,C  25)          116.4631         0.179207   
    146. A(C   1,Lu  0,C   4)           52.4331         0.166550   
    147. A(C   2,Lu  0,C   4)           52.3280         0.166033   
    148. A(C  14,Lu  0,C  16)           52.3984         0.166517   
    149. A(C   3,Lu  0,C   4)           31.4434         0.164735   
    150. A(C  13,Lu  0,C  16)           31.7130         0.166688   
    151. A(C   2,Lu  0,C  14)          100.0328         0.166151   
    152. A(C   2,C   1,C   5)          107.9518         0.421536   
    153. A(Lu  0,C   1,H   8)          125.3818         0.215125   
    154. A(Lu  0,C   1,C   5)           74.2456         0.250103   
    155. A(C   5,C   1,H   8)          125.4737         0.349939   
    156. A(Lu  0,C   1,C   2)           74.4630         0.249731   
    157. A(C   2,C   1,H   8)          125.7476         0.349337   
    158. A(C   1,C   2,H   9)          125.4574         0.349139   
    159. A(Lu  0,C   2,H   9)          127.0054         0.214188   
    160. A(Lu  0,C   2,C   3)           75.0915         0.249276   
    161. A(Lu  0,C   2,C   1)           73.8360         0.248659   
    162. A(C   1,C   2,C   3)          107.8580         0.422052   
    163. A(C   3,C   2,H   9)          125.4344         0.350145   
    164. A(C   4,C   3,H  10)          125.5845         0.350317   
    165. A(C   2,C   3,H  10)          125.5248         0.350418   
    166. A(Lu  0,C   3,H  10)          126.0707         0.212208   
    167. A(Lu  0,C   3,C   4)           73.3581         0.246515   
    168. A(Lu  0,C   3,C   2)           73.4940         0.246576   
    169. A(Lu  0,C   3,C  13)           50.4349         0.122083   
    170. A(H  10,C   3,C  13)           77.7946         0.143885   
    171. A(C   4,C   3,C  13)          113.5575         0.159168   
    172. A(C   2,C   3,C   4)          108.2871         0.423211   
    173. A(C  13,C   3,C  14)           24.8936         0.104102   
    174. A(Lu  0,C   3,C  14)           50.9043         0.122901   
    175. A(H  10,C   3,C  14)           76.0599         0.145242   
    176. A(C   4,C   3,C  14)           93.9847         0.160902   
    177. A(C   2,C   3,C  14)          110.2305         0.160930   
    178. A(C   2,C   3,C  13)           88.8090         0.159195   
    179. A(Lu  0,C   4,H   6)          126.2681         0.214469   
    180. A(C   5,C   4,H   6)          125.4458         0.349251   
    181. A(Lu  0,C   4,C   5)           74.0475         0.249198   
    182. A(Lu  0,C   4,C   3)           75.1985         0.249630   
    183. A(C   3,C   4,H   6)          125.5847         0.349952   
    184. A(C   3,C   4,C   5)          107.8243         0.422183   
    185. A(C   1,C   5,C   4)          108.0511         0.421796   
    186. A(C   4,C   5,H   7)          125.7596         0.349623   
    187. A(Lu  0,C   5,H   7)          124.6919         0.214942   
    188. A(C   1,C   5,H   7)          125.5655         0.350022   
    189. A(Lu  0,C   5,C   4)           74.2664         0.249573   
    190. A(Lu  0,C   5,C   1)           74.0796         0.249818   
    191. A(C  14,C  11,H  15)          125.6286         0.349635   
    192. A(Lu  0,C  11,H  15)          126.2343         0.214466   
    193. A(Lu  0,C  11,C  14)           74.0767         0.249258   
    194. A(C  12,C  11,H  15)          125.4293         0.349759   
    195. A(Lu  0,C  11,C  12)           74.8979         0.249333   
    196. A(C  12,C  11,C  14)          107.8689         0.422066   
    197. A(C  16,C  12,H  17)          125.7122         0.350072   
    198. A(C  11,C  12,H  17)          125.6640         0.350149   
    199. A(Lu  0,C  12,H  17)          125.0939         0.212912   
    200. A(Lu  0,C  12,C  16)           73.4472         0.247064   
    201. A(Lu  0,C  12,C  11)           73.5877         0.247111   
    202. A(C  11,C  12,C  16)          108.1423         0.422126   
    203. A(C  16,C  13,H  19)          125.4872         0.349358   
    204. A(C  14,C  13,H  19)          125.6321         0.350085   
    205. A(Lu  0,C  13,H  19)          125.6180         0.214990   
    206. A(Lu  0,C  13,C  16)           74.2180         0.249796   
    207. A(Lu  0,C  13,C  14)           74.2877         0.250245   
    208. A(C  14,C  13,C  16)          108.0529         0.422212   
    209. A(Lu  0,C  13,C   3)           51.1922         0.122864   
    210. A(C   3,C  13,H  19)           82.2486         0.143832   
    211. A(C   3,C  13,C  16)          122.4571         0.158979   
    212. A(C   3,C  13,C  14)           76.3894         0.159175   
    213. A(Lu  0,C  14,H  18)          125.5943         0.214720   
    214. A(Lu  0,C  14,C  13)           74.0811         0.249891   
    215. A(C  13,C  14,H  18)          125.7244         0.350099   
    216. A(Lu  0,C  14,C  11)           74.2734         0.249594   
    217. A(C  11,C  14,H  18)          125.3960         0.349617   
    218. A(Lu  0,C  14,C   3)           51.6007         0.123624   
    219. A(C   3,C  14,H  18)           80.6829         0.145189   
    220. A(C   3,C  14,C  13)           78.7170         0.160909   
    221. A(C   3,C  14,C  11)          121.8615         0.160776   
    222. A(C  11,C  14,C  13)          108.0878         0.422525   
    223. A(C  13,C  16,H  20)          125.6098         0.349435   
    224. A(Lu  0,C  16,H  20)          126.9287         0.214828   
    225. A(Lu  0,C  16,C  13)           74.0690         0.249541   
    226. A(C  12,C  16,H  20)          125.2947         0.349727   
    227. A(Lu  0,C  16,C  12)           75.0109         0.249721   
    228. A(C  12,C  16,C  13)          107.8266         0.421656   
    229. A(H  22,C  21,H  23)          109.2486         0.293412   
    230. A(Lu  0,C  21,H  26)           74.3558         0.139161   
    231. A(Lu  0,C  21,H  24)           36.7891         0.138709   
    232. A(Lu  0,C  21,H  23)          129.0844         0.139295   
    233. A(Lu  0,C  21,H  22)          117.3088         0.139308   
    234. A(H  24,C  21,H  26)          110.5851         0.290438   
    235. A(H  23,C  21,H  26)          109.1428         0.292813   
    236. A(H  22,C  21,H  26)          109.3033         0.292865   
    237. A(H  23,C  21,H  24)          109.1308         0.290978   
    238. A(H  22,C  21,H  24)          109.4097         0.291030   
    239. A(Lu  0,C  25,H  29)          115.7395         0.233484   
    240. A(Lu  0,C  25,H  28)          115.4340         0.233504   
    241. A(Lu  0,C  25,H  27)          112.6199         0.233191   
    242. A(H  28,C  25,H  29)          104.1575         0.287164   
    243. A(H  27,C  25,H  29)          103.7022         0.286734   
    244. A(H  27,C  25,H  28)          103.7770         0.286761   
    245. D(H   8,C   1,Lu  0,C   4)    159.7069         0.001517   
    246. D(C   5,C   1,Lu  0,C  12)    173.6605         0.001517   
    247. D(C   2,C   1,Lu  0,C  25)    163.4277         0.001517   
    248. D(C   5,C   1,Lu  0,C   2)    114.2568         0.001517   
    249. D(H   8,C   1,Lu  0,C  21)    -39.2917         0.001517   
    250. D(C   2,C   1,Lu  0,C   4)    -77.1805         0.001517   
    251. D(C   2,C   1,Lu  0,C  13)      8.3517         0.001517   
    252. D(C   5,C   1,Lu  0,C  16)    157.7022         0.001517   
    253. D(H   8,C   1,Lu  0,C  25)     40.3150         0.001517   
    254. D(C   5,C   1,Lu  0,C  21)   -161.9223         0.001517   
    255. D(H   8,C   1,Lu  0,C   3)   -160.2189         0.001517   
    256. D(C   2,C   1,Lu  0,C  12)     59.4037         0.001517   
    257. D(C   5,C   1,Lu  0,C  11)     65.3029         0.001517   
    258. D(C   5,C   1,Lu  0,C   4)     37.0763         0.001517   
    259. D(C   2,C   1,Lu  0,C  11)    -48.9539         0.001517   
    260. D(C   5,C   1,Lu  0,C  25)    -82.3155         0.001517   
    261. D(C   2,C   1,Lu  0,C   5)   -114.2568         0.001517   
    262. D(H   8,C   1,Lu  0,C  14)   -150.5579         0.001517   
    263. D(C   2,C   1,Lu  0,C  16)     43.4453         0.001517   
    264. D(C   5,C   1,Lu  0,C  13)    122.6085         0.001517   
    265. D(H   8,C   1,Lu  0,C  12)    -63.7090         0.001517   
    266. D(C   5,C   1,Lu  0,C   3)     77.1505         0.001517   
    267. D(H   8,C   1,Lu  0,C  16)    -79.6673         0.001517   
    268. D(H   8,C   1,Lu  0,C   2)   -123.1127         0.001517   
    269. D(C   2,C   1,Lu  0,C   3)    -37.1063         0.001517   
    270. D(C   5,C   1,Lu  0,C  14)     86.8116         0.001517   
    271. D(C   2,C   1,Lu  0,C  21)     83.8209         0.001517   
    272. D(H   8,C   1,Lu  0,C   5)    122.6305         0.001517   
    273. D(C   2,C   1,Lu  0,C  14)    -27.4453         0.001517   
    274. D(H   8,C   1,Lu  0,C  13)   -114.7609         0.001517   
    275. D(H   8,C   1,Lu  0,C  11)   -172.0666         0.001517   
    276. D(C   3,C   2,Lu  0,C   5)    -76.8539         0.001516   
    277. D(C   1,C   2,Lu  0,C  14)    158.6922         0.001516   
    278. D(C   1,C   2,Lu  0,C  11)    158.2644         0.001516   
    279. D(C   1,C   2,Lu  0,C  21)    -85.3784         0.001516   
    280. D(C   3,C   2,C   1,Lu  0)     67.9875         0.032172   
    281. D(H   9,C   2,Lu  0,C  25)    102.0873         0.001516   
    282. D(C   1,C   2,Lu  0,C  25)    -20.4502         0.001516   
    283. D(C   3,C   2,Lu  0,C   4)    -36.5103         0.001516   
    284. D(H   9,C   2,Lu  0,C   1)    122.5376         0.001516   
    285. D(C   3,C   2,Lu  0,C  13)     73.3368         0.001516   
    286. D(C   3,C   2,Lu  0,C  12)     88.2431         0.001516   
    287. D(C   3,C   2,Lu  0,C  14)     44.6398         0.001516   
    288. D(C   3,C   2,Lu  0,C  11)     44.2120         0.001516   
    289. D(C   3,C   2,C   1,C   5)      0.7127         0.032172   
    290. D(C   3,C   2,Lu  0,C  16)     98.2091         0.001516   
    291. D(H   9,C   2,Lu  0,C  16)    -25.2010         0.001516   
    292. D(H   9,C   2,C   1,Lu  0)   -124.2580         0.032172   
    293. D(C   1,C   2,Lu  0,C  13)   -172.6108         0.001516   
    294. D(C   3,C   2,Lu  0,C   1)   -114.0524         0.001516   
    295. D(C   3,C   2,C   1,H   8)   -169.3039         0.032172   
    296. D(C   1,C   2,Lu  0,C   5)     37.1984         0.001516   
    297. D(C   1,C   2,Lu  0,C  16)   -147.7386         0.001516   
    298. D(C   1,C   2,Lu  0,C   3)    114.0524         0.001516   
    299. D(H   9,C   2,Lu  0,C   4)   -159.9204         0.001516   
    300. D(H   9,C   2,Lu  0,C   5)    159.7360         0.001516   
    301. D(C   3,C   2,Lu  0,C  25)   -134.5026         0.001516   
    302. D(H   9,C   2,Lu  0,C  11)    -79.1981         0.001516   
    303. D(H   9,C   2,Lu  0,C  21)     37.1591         0.001516   
    304. D(H   9,C   2,Lu  0,C  12)    -35.1670         0.001516   
    305. D(H   9,C   2,Lu  0,C  14)    -78.7703         0.001516   
    306. D(H   9,C   2,C   1,H   8)     -1.5494         0.032172   
    307. D(C   1,C   2,Lu  0,C  12)   -157.7046         0.001516   
    308. D(H   9,C   2,Lu  0,C   3)   -123.4101         0.001516   
    309. D(Lu  0,C   2,C   1,H   8)    122.7086         0.032172   
    310. D(H   9,C   2,Lu  0,C  13)    -50.0733         0.001516   
    311. D(C   1,C   2,Lu  0,C   4)     77.5420         0.001516   
    312. D(H   9,C   2,C   1,C   5)    168.4672         0.032172   
    313. D(C   3,C   2,Lu  0,C  21)    160.5692         0.001516   
    314. D(Lu  0,C   2,C   1,C   5)    -67.2749         0.032172   
    315. D(H  10,C   3,C   2,Lu  0)   -122.8863         0.036291   
    316. D(H  10,C   3,C   2,H   9)      2.2135         0.036291   
    317. D(C   4,C   3,C   2,C   1)     -1.5050         0.036291   
    318. D(C  14,C   3,Lu  0,C   1)    172.3309         0.001515   
    319. D(C  13,C   3,Lu  0,C  21)     83.7634         0.001515   
    320. D(C  14,C   3,Lu  0,C   4)   -109.6536         0.001515   
    321. D(C  14,C   3,Lu  0,C  12)     14.5530         0.001515   
    322. D(C  14,C   3,Lu  0,C   5)   -147.1815         0.001515   
    323. D(C   4,C   3,C   2,Lu  0)     65.6372         0.036291   
    324. D(C  14,C   3,Lu  0,C  16)     42.9731         0.001515   
    325. D(C   4,C   3,C   2,H   9)   -169.2630         0.036291   
    326. D(C  13,C   3,Lu  0,C   5)   -179.5346         0.001515   
    327. D(C  13,C   3,Lu  0,C   1)    139.9777         0.001515   
    328. D(H  10,C   3,Lu  0,C  25)   -165.1909         0.001515   
    329. D(C  13,C   3,Lu  0,C  14)    -32.3531         0.001515   
    330. D(H  10,C   3,Lu  0,C   2)    122.2702         0.001515   
    331. D(C  13,C   3,Lu  0,C   4)   -142.0067         0.001515   
    332. D(H  10,C   3,Lu  0,C   4)   -122.2529         0.001515   
    333. D(H  10,C   3,Lu  0,C  11)    -24.7786         0.001515   
    334. D(H  10,C   3,Lu  0,C  13)     19.7539         0.001515   
    335. D(H  10,C   3,Lu  0,C  12)      1.9537         0.001515   
    336. D(H  10,C   3,Lu  0,C  14)    -12.5992         0.001515   
    337. D(H  10,C   3,Lu  0,C  16)     30.3738         0.001515   
    338. D(Lu  0,C   3,C   2,C   1)    -67.1422         0.036291   
    339. D(H  10,C   3,Lu  0,C  21)    103.5173         0.001515   
    340. D(C  14,C   3,Lu  0,C  21)    116.1166         0.001515   
    341. D(H  10,C   3,Lu  0,C   5)   -159.7807         0.001515   
    342. D(C  13,C   3,Lu  0,C  11)    -44.5325         0.001515   
    343. D(C   4,C   3,Lu  0,C  21)   -134.2298         0.001515   
    344. D(C  13,C   3,Lu  0,C   2)    102.5163         0.001515   
    345. D(H  10,C   3,Lu  0,C   1)    159.7316         0.001515   
    346. D(C  14,C   3,Lu  0,C  25)   -152.5916         0.001515   
    347. D(C  13,C   3,Lu  0,C  16)     10.6199         0.001515   
    348. D(C  13,C   3,Lu  0,C  25)    175.0552         0.001515   
    349. D(C   2,C   3,Lu  0,C  14)   -134.8695         0.001515   
    350. D(C   4,C   3,Lu  0,C  12)    124.2066         0.001515   
    351. D(C   2,C   3,Lu  0,C  21)    -18.7529         0.001515   
    352. D(C   4,C   3,Lu  0,C  11)     97.4743         0.001515   
    353. D(C   4,C   3,Lu  0,C   5)    -37.5279         0.001515   
    354. D(C   4,C   3,Lu  0,C  25)    -42.9380         0.001515   
    355. D(C   4,C   3,Lu  0,C   1)    -78.0155         0.001515   
    356. D(C   4,C   3,Lu  0,C  14)    109.6536         0.001515   
    357. D(C  14,C   3,Lu  0,C  11)    -12.1794         0.001515   
    358. D(H  10,C   3,C   2,C   1)    169.9715         0.036291   
    359. D(C   2,C   3,Lu  0,C  11)   -147.0488         0.001515   
    360. D(C   2,C   3,Lu  0,C  16)    -91.8964         0.001515   
    361. D(C  13,C   3,Lu  0,C  12)    -17.8002         0.001515   
    362. D(C  14,C   3,Lu  0,C   2)    134.8695         0.001515   
    363. D(C   2,C   3,Lu  0,C   1)     37.4614         0.001515   
    364. D(C   4,C   3,Lu  0,C  13)    142.0067         0.001515   
    365. D(C   2,C   3,Lu  0,C  12)   -120.3165         0.001515   
    366. D(C  14,C   3,Lu  0,C  13)     32.3531         0.001515   
    367. D(C  14,C   3,C   2,Lu  0)    -35.8873         0.036291   
    368. D(C   2,C   3,Lu  0,C  13)   -102.5163         0.001515   
    369. D(C  14,C   3,C   2,H   9)     89.2125         0.036291   
    370. D(Lu  0,C   3,C   2,H   9)    125.0998         0.036291   
    371. D(C   2,C   3,Lu  0,C   4)    115.4769         0.001515   
    372. D(C  13,C   3,C   2,Lu  0)    -48.8285         0.036291   
    373. D(C   2,C   3,Lu  0,C   5)     77.9490         0.001515   
    374. D(C   4,C   3,Lu  0,C  16)    152.6267         0.001515   
    375. D(C   2,C   3,Lu  0,C  25)     72.5389         0.001515   
    376. D(C  13,C   3,C   2,C   1)   -115.9707         0.036291   
    377. D(C   4,C   3,Lu  0,C   2)   -115.4769         0.001515   
    378. D(C  13,C   3,C   2,H   9)     76.2712         0.036291   
    379. D(C  14,C   3,C   2,C   1)   -103.0295         0.036291   
    380. D(Lu  0,C   4,C   3,C  14)     47.1092         0.033242   
    381. D(Lu  0,C   4,C   3,C  13)     31.1772         0.033242   
    382. D(Lu  0,C   4,C   3,H  10)    122.8032         0.033242   
    383. D(H   6,C   4,C   3,C  14)    -77.1749         0.033242   
    384. D(H   6,C   4,C   3,C  13)    -93.1069         0.033242   
    385. D(H   6,C   4,C   3,C   2)    169.9892         0.033242   
    386. D(C   5,C   4,C   3,C  13)     98.6224         0.033242   
    387. D(C   5,C   4,C   3,H  10)   -169.7517         0.033242   
    388. D(H   6,C   4,Lu  0,C  14)     56.6968         0.001516   
    389. D(H   6,C   4,Lu  0,C  12)     38.7286         0.001516   
    390. D(H   6,C   4,Lu  0,C  21)    179.0848         0.001516   
    391. D(H   6,C   4,Lu  0,C  11)     30.8806         0.001516   
    392. D(H   6,C   4,Lu  0,C   5)   -122.5725         0.001516   
    393. D(H   6,C   4,Lu  0,C  16)     85.3846         0.001516   
    394. D(C   5,C   4,C   3,Lu  0)     67.4451         0.033242   
    395. D(H   6,C   4,Lu  0,C   1)   -159.6351         0.001516   
    396. D(H   6,C   4,Lu  0,C  25)    -83.9884         0.001516   
    397. D(C   5,C   4,C   3,C  14)    114.5543         0.033242   
    398. D(C   5,C   4,Lu  0,C  21)    -58.3427         0.001516   
    399. D(C   5,C   4,Lu  0,C  16)   -152.0428         0.001516   
    400. D(H   6,C   4,C   3,Lu  0)   -124.2841         0.033242   
    401. D(H   6,C   4,Lu  0,C   2)    160.0231         0.001516   
    402. D(H   6,C   4,Lu  0,C   3)    123.5478         0.001516   
    403. D(C   5,C   4,Lu  0,C  14)    179.2694         0.001516   
    404. D(Lu  0,C   4,C   3,C   2)    -65.7267         0.033242   
    405. D(C   5,C   4,Lu  0,C  13)   -152.1707         0.001516   
    406. D(H   6,C   4,Lu  0,C  13)     85.2567         0.001516   
    407. D(H   6,C   4,C   3,H  10)     -1.4809         0.033242   
    408. D(C   5,C   4,Lu  0,C  12)    161.3012         0.001516   
    409. D(C   5,C   4,Lu  0,C  11)    153.4531         0.001516   
    410. D(C   5,C   4,Lu  0,C   3)   -113.8797         0.001516   
    411. D(C   5,C   4,Lu  0,C   2)    -77.4043         0.001516   
    412. D(C   5,C   4,C   3,C   2)      1.7184         0.033242   
    413. D(C   3,C   4,Lu  0,C  16)    -38.1631         0.001516   
    414. D(C   3,C   4,Lu  0,C  25)    152.4639         0.001516   
    415. D(C   3,C   4,Lu  0,C   1)     76.8172         0.001516   
    416. D(C   3,C   4,Lu  0,C   2)     36.4754         0.001516   
    417. D(C   3,C   4,Lu  0,C   5)    113.8797         0.001516   
    418. D(C   3,C   4,Lu  0,C  13)    -38.2910         0.001516   
    419. D(C   3,C   4,Lu  0,C  11)    -92.6672         0.001516   
    420. D(C   3,C   4,Lu  0,C  12)    -84.8191         0.001516   
    421. D(C   5,C   4,Lu  0,C  25)     38.5842         0.001516   
    422. D(C   3,C   4,Lu  0,C  14)    -66.8509         0.001516   
    423. D(C   5,C   4,Lu  0,C   1)    -37.0625         0.001516   
    424. D(C   3,C   4,Lu  0,C  21)     55.5370         0.001516   
    425. D(Lu  0,C   5,C   4,H   6)    123.4866         0.026031   
    426. D(Lu  0,C   5,C   4,C   3)    -68.2221         0.026031   
    427. D(H   7,C   5,C   4,Lu  0)   -121.7230         0.026031   
    428. D(H   7,C   5,C   4,H   6)      1.7636         0.026031   
    429. D(C   1,C   5,C   4,Lu  0)     66.9493         0.026031   
    430. D(C   1,C   5,C   4,H   6)   -169.5641         0.026031   
    431. D(C   1,C   5,C   4,C   3)     -1.2728         0.026031   
    432. D(C   1,C   5,Lu  0,C   3)    -77.3010         0.001516   
    433. D(H   7,C   5,C   1,H   8)     -0.9512         0.029782   
    434. D(C   4,C   5,C   1,C   2)      0.3467         0.029782   
    435. D(C   1,C   5,Lu  0,C  13)    -77.8997         0.001516   
    436. D(H   7,C   5,Lu  0,C  21)   -105.0025         0.001516   
    437. D(H   7,C   5,Lu  0,C  13)    159.5422         0.001516   
    438. D(H   7,C   5,Lu  0,C   3)    160.1409         0.001516   
    439. D(H   7,C   5,Lu  0,C  14)    122.0632         0.001516   
    440. D(C   4,C   5,Lu  0,C  11)    -37.1775         0.001516   
    441. D(C   4,C   5,Lu  0,C  21)    132.0828         0.001516   
    442. D(C   4,C   5,Lu  0,C  16)     64.3221         0.001516   
    443. D(C   4,C   5,Lu  0,C  14)     -0.8515         0.001516   
    444. D(C   4,C   5,Lu  0,C  13)     36.6275         0.001516   
    445. D(H   7,C   5,Lu  0,C  25)    -23.1432         0.001516   
    446. D(C   4,C   5,Lu  0,C  12)    -57.7956         0.001516   
    447. D(H   7,C   5,Lu  0,C   2)   -159.7887         0.001516   
    448. D(C   4,C   5,Lu  0,C   3)     37.2262         0.001516   
    449. D(C   4,C   5,Lu  0,C   2)     77.2965         0.001516   
    450. D(C   4,C   5,Lu  0,C   1)    114.5272         0.001516   
    451. D(H   7,C   5,Lu  0,C   1)   -122.5581         0.001516   
    452. D(C   4,C   5,Lu  0,C  25)   -146.0579         0.001516   
    453. D(C   1,C   5,Lu  0,C  21)     17.5556         0.001516   
    454. D(C   1,C   5,Lu  0,C  16)    -50.2051         0.001516   
    455. D(C   1,C   5,Lu  0,C  14)   -115.3788         0.001516   
    456. D(C   4,C   5,C   1,Lu  0)    -67.0741         0.029782   
    457. D(H   7,C   5,Lu  0,C  16)   -172.7632         0.001516   
    458. D(H   7,C   5,Lu  0,C  12)     65.1191         0.001516   
    459. D(C   4,C   5,C   1,H   8)    170.3977         0.029782   
    460. D(C   1,C   5,Lu  0,C  12)   -172.3229         0.001516   
    461. D(C   1,C   5,Lu  0,C  11)   -151.7047         0.001516   
    462. D(C   1,C   5,Lu  0,C   4)   -114.5272         0.001516   
    463. D(H   7,C   5,C   1,C   2)   -171.0023         0.029782   
    464. D(Lu  0,C   5,C   1,C   2)     67.4208         0.029782   
    465. D(C   1,C   5,Lu  0,C   2)    -37.2307         0.001516   
    466. D(H   7,C   5,C   4,C   3)    170.0549         0.026031   
    467. D(Lu  0,C   5,C   1,H   8)   -122.5282         0.029782   
    468. D(C   1,C   5,Lu  0,C  25)     99.4149         0.001516   
    469. D(H   7,C   5,C   1,Lu  0)    121.5770         0.029782   
    470. D(H   7,C   5,Lu  0,C  11)     85.7372         0.001516   
    471. D(H   7,C   5,Lu  0,C   4)    122.9147         0.001516   
    472. D(H  15,C  11,Lu  0,C   4)    -66.7326         0.001516   
    473. D(H  15,C  11,Lu  0,C   5)    -47.2219         0.001516   
    474. D(H  15,C  11,Lu  0,C   1)    -89.9649         0.001516   
    475. D(H  15,C  11,Lu  0,C  25)     56.9162         0.001516   
    476. D(H  15,C  11,Lu  0,C  12)    123.1368         0.001516   
    477. D(C  14,C  11,Lu  0,C  16)    -77.3755         0.001516   
    478. D(C  14,C  11,Lu  0,C  12)   -114.0471         0.001516   
    479. D(C  14,C  11,Lu  0,C   3)     23.1115         0.001516   
    480. D(C  14,C  11,Lu  0,C   2)      0.8028         0.001516   
    481. D(C  14,C  11,Lu  0,C   1)     32.8512         0.001516   
    482. D(C  12,C  11,Lu  0,C  16)     36.6716         0.001516   
    483. D(C  12,C  11,Lu  0,C   2)    114.8499         0.001516   
    484. D(C  12,C  11,Lu  0,C   5)   -170.3587         0.001516   
    485. D(C  12,C  11,Lu  0,C   4)    170.1306         0.001516   
    486. D(C  12,C  11,Lu  0,C   3)    137.1586         0.001516   
    487. D(C  12,C  11,Lu  0,C  21)     22.0119         0.001516   
    488. D(C  12,C  11,Lu  0,C  14)    114.0471         0.001516   
    489. D(C  12,C  11,Lu  0,C   1)    146.8983         0.001516   
    490. D(C  14,C  11,Lu  0,C  21)    -92.0352         0.001516   
    491. D(C  12,C  11,Lu  0,C  25)    -66.2206         0.001516   
    492. D(C  14,C  11,Lu  0,C  25)    179.7323         0.001516   
    493. D(H  15,C  11,Lu  0,C   2)   -122.0133         0.001516   
    494. D(H  15,C  11,Lu  0,C   3)    -99.7045         0.001516   
    495. D(H  15,C  11,Lu  0,C  13)   -159.8423         0.001516   
    496. D(C  14,C  11,Lu  0,C   4)     56.0835         0.001516   
    497. D(C  12,C  11,Lu  0,C  13)     77.0209         0.001516   
    498. D(C  14,C  11,Lu  0,C  13)    -37.0263         0.001516   
    499. D(C  14,C  11,Lu  0,C   5)     75.5942         0.001516   
    500. D(H  15,C  11,Lu  0,C  21)    145.1488         0.001516   
    501. D(H  15,C  11,Lu  0,C  16)    159.8085         0.001516   
    502. D(H  15,C  11,Lu  0,C  14)   -122.8161         0.001516   
    503. D(Lu  0,C  12,C  11,H  15)   -124.0126         0.026374   
    504. D(Lu  0,C  12,C  11,C  14)     67.3210         0.026374   
    505. D(H  17,C  12,C  11,H  15)     -2.2555         0.026374   
    506. D(H  17,C  12,C  11,C  14)   -170.9219         0.026374   
    507. D(C  16,C  12,C  11,Lu  0)    -65.8547         0.026374   
    508. D(C  16,C  12,C  11,H  15)    170.1327         0.026374   
    509. D(C  16,C  12,C  11,C  14)      1.4662         0.026374   
    510. D(H  17,C  12,Lu  0,C  21)     76.1974         0.001514   
    511. D(H  17,C  12,Lu  0,C  16)    122.3715         0.001514   
    512. D(H  17,C  12,Lu  0,C  13)    159.8340         0.001514   
    513. D(H  17,C  12,Lu  0,C  11)   -122.4030         0.001514   
    514. D(H  17,C  12,Lu  0,C   5)    -94.1396         0.001514   
    515. D(C  16,C  12,Lu  0,C   2)     18.4916         0.001514   
    516. D(H  17,C  12,Lu  0,C   1)     99.3475         0.001514   
    517. D(H  17,C  12,Lu  0,C  25)     -5.6573         0.001514   
    518. D(C  16,C  12,Lu  0,C  13)     37.4625         0.001514   
    519. D(C  16,C  12,Lu  0,C  11)    115.2255         0.001514   
    520. D(C  16,C  12,Lu  0,C   5)    143.4889         0.001514   
    521. D(C  16,C  12,Lu  0,C  21)    -46.1740         0.001514   
    522. D(C  16,C  12,Lu  0,C   4)    100.8507         0.001514   
    523. D(C  16,C  12,Lu  0,C   3)     59.7413         0.001514   
    524. D(C  16,C  12,Lu  0,C  14)     77.8477         0.001514   
    525. D(H  17,C  12,Lu  0,C   4)   -136.7778         0.001514   
    526. D(C  16,C  12,Lu  0,C   1)    -23.0240         0.001514   
    527. D(C  16,C  12,Lu  0,C  25)   -128.0288         0.001514   
    528. D(C  11,C  12,Lu  0,C  21)   -161.3996         0.001514   
    529. D(H  17,C  12,Lu  0,C   3)   -177.8872         0.001514   
    530. D(H  17,C  12,Lu  0,C  14)   -159.7809         0.001514   
    531. D(C  11,C  12,Lu  0,C  14)    -37.3779         0.001514   
    532. D(C  11,C  12,Lu  0,C   5)     28.2634         0.001514   
    533. D(C  11,C  12,Lu  0,C   4)    -14.3748         0.001514   
    534. D(C  11,C  12,Lu  0,C   3)    -55.4842         0.001514   
    535. D(C  11,C  12,Lu  0,C   2)    -96.7339         0.001514   
    536. D(C  11,C  12,Lu  0,C   1)   -138.2496         0.001514   
    537. D(C  11,C  12,Lu  0,C  13)    -77.7631         0.001514   
    538. D(H  17,C  12,C  11,Lu  0)    121.7571         0.026374   
    539. D(C  11,C  12,Lu  0,C  25)    116.7457         0.001514   
    540. D(C  11,C  12,Lu  0,C  16)   -115.2255         0.001514   
    541. D(H  17,C  12,Lu  0,C   2)    140.8631         0.001514   
    542. D(Lu  0,C  13,C   3,C  14)    -80.6283         0.001500   
    543. D(Lu  0,C  13,C   3,H  10)   -163.7694         0.001500   
    544. D(Lu  0,C  13,C   3,C   4)    -40.0463         0.001500   
    545. D(Lu  0,C  13,C   3,C   2)     69.4239         0.001500   
    546. D(H  19,C  13,C   3,C  14)    129.6351         0.001500   
    547. D(H  19,C  13,C   3,H  10)     46.4940         0.001500   
    548. D(H  19,C  13,C   3,C   4)    170.2171         0.001500   
    549. D(H  19,C  13,C   3,C   2)    -80.3128         0.001500   
    550. D(C  16,C  13,C   3,Lu  0)    -22.3089         0.001500   
    551. D(C  16,C  13,C   3,H  10)    173.9217         0.001500   
    552. D(C  16,C  13,C   3,C   4)    -62.3552         0.001500   
    553. D(C  14,C  13,C   3,Lu  0)     80.6283         0.001500   
    554. D(C  14,C  13,C   3,H  10)    -83.1411         0.001500   
    555. D(C  14,C  13,C   3,C   4)     40.5819         0.001500   
    556. D(C  14,C  13,C   3,C   2)    150.0521         0.001500   
    557. D(C   3,C  13,Lu  0,C  21)   -102.2530         0.001518   
    558. D(C   3,C  13,Lu  0,C  16)   -160.5581         0.001518   
    559. D(C   3,C  13,Lu  0,C  14)     84.9827         0.001518   
    560. D(C   3,C  13,Lu  0,C  11)    122.0319         0.001518   
    561. D(C   3,C  13,Lu  0,C   5)      0.4819         0.001518   
    562. D(C   3,C  13,Lu  0,C   4)     19.2700         0.001518   
    563. D(C   3,C  13,Lu  0,C   1)    -35.0362         0.001518   
    564. D(C   3,C  13,Lu  0,C  25)   -175.4357         0.001518   
    565. D(H  19,C  13,Lu  0,C  21)    -64.3524         0.001518   
    566. D(H  19,C  13,Lu  0,C  16)   -122.6574         0.001518   
    567. D(H  19,C  13,Lu  0,C  14)    122.8834         0.001518   
    568. D(H  19,C  13,Lu  0,C  12)   -159.9077         0.001518   
    569. D(H  19,C  13,Lu  0,C  11)    159.9326         0.001518   
    570. D(H  19,C  13,Lu  0,C   5)     38.3826         0.001518   
    571. D(H  19,C  13,Lu  0,C   4)     57.1706         0.001518   
    572. D(H  19,C  13,Lu  0,C   3)     37.9006         0.001518   
    573. D(H  19,C  13,Lu  0,C   2)      7.2502         0.001518   
    574. D(C   3,C  13,Lu  0,C   2)    -30.6505         0.001518   
    575. D(H  19,C  13,Lu  0,C   1)      2.8644         0.001518   
    576. D(H  19,C  13,Lu  0,C  25)   -137.5351         0.001518   
    577. D(C  16,C  13,Lu  0,C  21)     58.3051         0.001518   
    578. D(C   3,C  13,Lu  0,C  12)    162.1916         0.001518   
    579. D(C  16,C  13,Lu  0,C  14)   -114.4592         0.001518   
    580. D(C  16,C  13,Lu  0,C  12)    -37.2503         0.001518   
    581. D(C  16,C  13,Lu  0,C  11)    -77.4100         0.001518   
    582. D(C  16,C  13,Lu  0,C   5)    161.0400         0.001518   
    583. D(C  16,C  13,Lu  0,C   4)    179.8281         0.001518   
    584. D(C  16,C  13,Lu  0,C   3)    160.5581         0.001518   
    585. D(C  16,C  13,Lu  0,C   2)    129.9076         0.001518   
    586. D(C  16,C  13,C   3,C   2)     47.1150         0.001500   
    587. D(C  16,C  13,Lu  0,C   1)    125.5219         0.001518   
    588. D(C  16,C  13,Lu  0,C  25)    -14.8776         0.001518   
    589. D(C  14,C  13,Lu  0,C  21)    172.7642         0.001518   
    590. D(C  16,C  13,C   3,C  14)   -102.9372         0.001500   
    591. D(C  14,C  13,Lu  0,C  16)    114.4592         0.001518   
    592. D(C  14,C  13,Lu  0,C  12)     77.2089         0.001518   
    593. D(C  14,C  13,Lu  0,C  11)     37.0492         0.001518   
    594. D(H  19,C  13,C   3,Lu  0)   -149.7366         0.001500   
    595. D(C  14,C  13,Lu  0,C   5)    -84.5008         0.001518   
    596. D(C  14,C  13,Lu  0,C   4)    -65.7128         0.001518   
    597. D(C  14,C  13,Lu  0,C   3)    -84.9827         0.001518   
    598. D(C  14,C  13,Lu  0,C   2)   -115.6332         0.001518   
    599. D(C  14,C  13,Lu  0,C   1)   -120.0190         0.001518   
    600. D(C  14,C  13,Lu  0,C  25)     99.5815         0.001518   
    601. D(C   3,C  14,C  13,Lu  0)     53.0058         0.034754   
    602. D(C   3,C  14,C  13,C  16)    120.1224         0.034754   
    603. D(Lu  0,C  14,C  13,C   3)    -53.0058         0.034754   
    604. D(Lu  0,C  14,C  13,H  19)   -122.8677         0.034754   
    605. D(Lu  0,C  14,C  13,C  16)     67.1165         0.034754   
    606. D(H  18,C  14,C  13,C   3)     69.7055         0.034754   
    607. D(H  18,C  14,C  13,Lu  0)    122.7113         0.034754   
    608. D(H  18,C  14,C  13,H  19)     -0.1564         0.034754   
    609. D(C  11,C  14,C  13,C   3)   -120.0722         0.034754   
    610. D(C  11,C  14,C  13,Lu  0)    -67.0664         0.034754   
    611. D(C  11,C  14,C  13,H  19)    170.0660         0.034754   
    612. D(C   3,C  14,C  11,Lu  0)    -20.8070         0.029617   
    613. D(C   3,C  14,C  11,H  15)    102.6811         0.029617   
    614. D(C   3,C  14,C  11,C  12)    -88.6810         0.029617   
    615. D(Lu  0,C  14,C  11,C  12)    -67.8740         0.029617   
    616. D(H  18,C  14,C  11,Lu  0)   -122.7993         0.029617   
    617. D(H  18,C  14,C  11,H  15)      0.6889         0.029617   
    618. D(H  18,C  14,C  11,C  12)    169.3268         0.029617   
    619. D(C  13,C  14,C  11,Lu  0)     66.9380         0.029617   
    620. D(C  13,C  14,C  11,H  15)   -169.5739         0.029617   
    621. D(C  13,C  14,C  11,C  12)     -0.9360         0.029617   
    622. D(Lu  0,C  14,C   3,H  10)    169.5333         0.001500   
    623. D(Lu  0,C  14,C   3,C   4)    -64.7538         0.001500   
    624. D(Lu  0,C  14,C   3,C   2)     46.4011         0.001500   
    625. D(H  18,C  14,C   3,Lu  0)    151.9630         0.001500   
    626. D(H  18,C  14,C   3,H  10)    -38.5036         0.001500   
    627. D(H  18,C  14,C   3,C   4)     87.2092         0.001500   
    628. D(C  13,C  14,C   3,Lu  0)    -78.5363         0.001500   
    629. D(C  13,C  14,C   3,H  10)     90.9970         0.001500   
    630. D(C  13,C  14,C   3,C   4)   -143.2901         0.001500   
    631. D(C  13,C  14,C   3,C   2)    -32.1352         0.001500   
    632. D(C  11,C  14,C   3,C  13)    104.4040         0.001500   
    633. D(C  11,C  14,C   3,Lu  0)     25.8677         0.001500   
    634. D(C  11,C  14,C   3,H  10)   -164.5990         0.001500   
    635. D(C  11,C  14,C   3,C   2)     72.2688         0.001500   
    636. D(C   3,C  14,Lu  0,C  21)    -96.2318         0.001517   
    637. D(C   3,C  14,Lu  0,C  16)   -125.2299         0.001517   
    638. D(C   3,C  14,Lu  0,C  13)    -88.0768         0.001517   
    639. D(C   3,C  14,Lu  0,C  12)   -165.4318         0.001517   
    640. D(C   3,C  14,Lu  0,C  11)    157.3583         0.001517   
    641. D(C   3,C  14,Lu  0,C   5)     29.8741         0.001517   
    642. D(C  11,C  14,C   3,C   4)    -38.8861         0.001500   
    643. D(C   3,C  14,Lu  0,C   4)     29.4268         0.001517   
    644. D(C   3,C  14,Lu  0,C   2)    -22.0328         0.001517   
    645. D(C   3,C  14,Lu  0,C   1)     -7.7943         0.001517   
    646. D(C   3,C  14,Lu  0,C  25)    156.9933         0.001517   
    647. D(H  18,C  14,Lu  0,C  21)   -131.0112         0.001517   
    648. D(H  18,C  14,Lu  0,C  16)   -160.0093         0.001517   
    649. D(H  18,C  14,Lu  0,C  13)   -122.8562         0.001517   
    650. D(H  18,C  14,C   3,C   2)   -161.6359         0.001500   
    651. D(H  18,C  14,Lu  0,C  12)    159.7888         0.001517   
    652. D(H  18,C  14,Lu  0,C  11)    122.5789         0.001517   
    653. D(H  18,C  14,Lu  0,C   5)     -4.9053         0.001517   
    654. D(H  18,C  14,C   3,C  13)   -129.5007         0.001500   
    655. D(H  18,C  14,Lu  0,C   4)     -5.3526         0.001517   
    656. D(H  18,C  14,Lu  0,C   3)    -34.7794         0.001517   
    657. D(H  18,C  14,Lu  0,C   2)    -56.8122         0.001517   
    658. D(Lu  0,C  14,C   3,C  13)     78.5363         0.001500   
    659. D(H  18,C  14,Lu  0,C   1)    -42.5737         0.001517   
    660. D(H  18,C  14,Lu  0,C  25)    122.2139         0.001517   
    661. D(C  13,C  14,Lu  0,C  21)     -8.1550         0.001517   
    662. D(C  13,C  14,Lu  0,C  16)    -37.1531         0.001517   
    663. D(C  13,C  14,Lu  0,C  12)    -77.3550         0.001517   
    664. D(C  13,C  14,Lu  0,C  11)   -114.5649         0.001517   
    665. D(C  13,C  14,Lu  0,C   5)    117.9509         0.001517   
    666. D(Lu  0,C  14,C  11,H  15)    123.4882         0.029617   
    667. D(C  13,C  14,Lu  0,C   4)    117.5036         0.001517   
    668. D(C  13,C  14,Lu  0,C   3)     88.0768         0.001517   
    669. D(C  13,C  14,Lu  0,C   2)     66.0440         0.001517   
    670. D(C  11,C  14,C  13,C  16)      0.0502         0.034754   
    671. D(C  13,C  14,Lu  0,C   1)     80.2825         0.001517   
    672. D(C  13,C  14,Lu  0,C  25)   -114.9299         0.001517   
    673. D(C  11,C  14,Lu  0,C  21)    106.4099         0.001517   
    674. D(H  18,C  14,C  13,C  16)   -170.1722         0.034754   
    675. D(C  11,C  14,Lu  0,C  16)     77.4118         0.001517   
    676. D(C  11,C  14,Lu  0,C  13)    114.5649         0.001517   
    677. D(C  11,C  14,Lu  0,C  12)     37.2099         0.001517   
    678. D(C  11,C  14,Lu  0,C   5)   -127.4842         0.001517   
    679. D(C  11,C  14,Lu  0,C   4)   -127.9315         0.001517   
    680. D(C  11,C  14,Lu  0,C   3)   -157.3583         0.001517   
    681. D(C  11,C  14,Lu  0,C   2)   -179.3911         0.001517   
    682. D(C   3,C  14,C  13,H  19)    -69.8618         0.034754   
    683. D(C  11,C  14,Lu  0,C   1)   -165.1526         0.001517   
    684. D(C  11,C  14,Lu  0,C  25)     -0.3650         0.001517   
    685. D(Lu  0,C  16,C  13,C   3)     17.9021         0.033850   
    686. D(Lu  0,C  16,C  13,H  19)    122.8028         0.033850   
    687. D(Lu  0,C  16,C  13,C  14)    -67.1631         0.033850   
    688. D(H  20,C  16,C  13,Lu  0)   -124.3400         0.033850   
    689. D(H  20,C  16,C  13,H  19)     -1.5372         0.033850   
    690. D(H  20,C  16,C  13,C  14)    168.4969         0.033850   
    691. D(C  12,C  16,C  13,C   3)     85.9197         0.033850   
    692. D(C  12,C  16,C  13,Lu  0)     68.0176         0.033850   
    693. D(C  12,C  16,C  13,H  19)   -169.1796         0.033850   
    694. D(C  12,C  16,C  13,C  14)      0.8545         0.033850   
    695. D(Lu  0,C  16,C  12,C  11)     65.9477         0.029666   
    696. D(H  20,C  16,C  12,Lu  0)    124.9262         0.029666   
    697. D(H  20,C  16,C  12,H  17)      3.2574         0.029666   
    698. D(C  13,C  16,C  12,Lu  0)    -67.3824         0.029666   
    699. D(C  13,C  16,C  12,H  17)    170.9488         0.029666   
    700. D(C  13,C  16,C  12,C  11)     -1.4347         0.029666   
    701. D(H  20,C  16,Lu  0,C  14)    159.9369         0.001517   
    702. D(H  20,C  16,Lu  0,C  13)    122.8840         0.001517   
    703. D(H  20,C  16,Lu  0,C  12)   -123.1618         0.001517   
    704. D(H  20,C  16,Lu  0,C  11)   -159.8002         0.001517   
    705. D(H  20,C  16,Lu  0,C   5)     80.5729         0.001517   
    706. D(H  20,C  16,Lu  0,C   4)    122.6472         0.001517   
    707. D(H  20,C  16,Lu  0,C   3)    102.8001         0.001517   
    708. D(H  20,C  16,Lu  0,C   2)     69.8860         0.001517   
    709. D(H  20,C  16,Lu  0,C   1)     47.7428         0.001517   
    710. D(H  20,C  16,Lu  0,C  25)    -67.3396         0.001517   
    711. D(C  13,C  16,Lu  0,C  21)   -115.8694         0.001517   
    712. D(C  13,C  16,Lu  0,C  14)     37.0528         0.001517   
    713. D(C  13,C  16,Lu  0,C  12)    113.9541         0.001517   
    714. D(H  20,C  16,Lu  0,C  21)      7.0146         0.001517   
    715. D(C  13,C  16,Lu  0,C  11)     77.3157         0.001517   
    716. D(C  13,C  16,Lu  0,C   5)    -42.3111         0.001517   
    717. D(C  13,C  16,Lu  0,C   4)     -0.2368         0.001517   
    718. D(H  20,C  16,C  12,C  11)   -169.1262         0.029666   
    719. D(C  13,C  16,Lu  0,C   3)    -20.0840         0.001517   
    720. D(C  13,C  16,Lu  0,C   2)    -52.9981         0.001517   
    721. D(C  13,C  16,Lu  0,C   1)    -75.1413         0.001517   
    722. D(Lu  0,C  16,C  12,H  17)   -121.6688         0.029666   
    723. D(C  13,C  16,Lu  0,C  25)    169.7764         0.001517   
    724. D(C  12,C  16,Lu  0,C  21)    130.1764         0.001517   
    725. D(C  12,C  16,Lu  0,C  14)    -76.9013         0.001517   
    726. D(C  12,C  16,Lu  0,C  13)   -113.9541         0.001517   
    727. D(C  12,C  16,Lu  0,C  11)    -36.6384         0.001517   
    728. D(C  12,C  16,Lu  0,C   5)   -156.2652         0.001517   
    729. D(C  12,C  16,Lu  0,C   4)   -114.1909         0.001517   
    730. D(H  20,C  16,C  13,C   3)   -106.4379         0.033850   
    731. D(C  12,C  16,Lu  0,C   3)   -134.0381         0.001517   
    732. D(C  12,C  16,Lu  0,C   2)   -166.9522         0.001517   
    733. D(C  12,C  16,Lu  0,C   1)    170.9046         0.001517   
    734. D(C  12,C  16,Lu  0,C  25)     55.8223         0.001517   
    735. D(H  23,C  21,Lu  0,C  13)    -69.6543         0.001500   
    736. D(H  23,C  21,Lu  0,C  12)    -17.7845         0.001500   
    737. D(H  23,C  21,Lu  0,C  11)    -29.0901         0.001500   
    738. D(H  23,C  21,Lu  0,C   4)   -173.0188         0.001500   
    739. D(H  23,C  21,Lu  0,C   3)   -147.0134         0.001500   
    740. D(H  23,C  21,Lu  0,C   2)   -157.1947         0.001500   
    741. D(H  23,C  21,Lu  0,C   1)    169.3625         0.001500   
    742. D(H  23,C  21,Lu  0,C  25)     70.8307         0.001500   
    743. D(H  22,C  21,Lu  0,C  16)    164.8263         0.001500   
    744. D(H  22,C  21,Lu  0,C  14)    140.8077         0.001500   
    745. D(H  22,C  21,Lu  0,C  13)    136.5322         0.001500   
    746. D(H  22,C  21,Lu  0,C  12)   -171.5981         0.001500   
    747. D(H  22,C  21,Lu  0,C  11)    177.0963         0.001500   
    748. D(H  22,C  21,Lu  0,C   5)      5.9559         0.001500   
    749. D(H  22,C  21,Lu  0,C   4)     33.1676         0.001500   
    750. D(H  23,C  21,Lu  0,C   5)    159.7694         0.001500   
    751. D(H  22,C  21,Lu  0,C   3)     59.1731         0.001500   
    752. D(H  22,C  21,Lu  0,C   2)     48.9918         0.001500   
    753. D(H  22,C  21,Lu  0,C   1)     15.5489         0.001500   
    754. D(H  23,C  21,Lu  0,C  14)    -65.3788         0.001500   
    755. D(H  22,C  21,Lu  0,C  25)    -82.9828         0.001500   
    756. D(H  26,C  21,Lu  0,C  16)     60.8362         0.001500   
    757. D(H  26,C  21,Lu  0,C  14)     36.8176         0.001500   
    758. D(H  26,C  21,Lu  0,C  13)     32.5421         0.001500   
    759. D(H  26,C  21,Lu  0,C  12)     84.4118         0.001500   
    760. D(H  26,C  21,Lu  0,C  11)     73.1062         0.001500   
    761. D(H  26,C  21,Lu  0,C   5)    -98.0342         0.001500   
    762. D(H  26,C  21,Lu  0,C   4)    -70.8225         0.001500   
    763. D(H  26,C  21,Lu  0,C   3)    -44.8170         0.001500   
    764. D(H  26,C  21,Lu  0,C   2)    -54.9983         0.001500   
    765. D(H  26,C  21,Lu  0,C   1)    -88.4412         0.001500   
    766. D(H  26,C  21,Lu  0,C  25)    173.0271         0.001500   
    767. D(H  24,C  21,Lu  0,C  16)   -108.9554         0.001500   
    768. D(H  24,C  21,Lu  0,C  14)   -132.9740         0.001500   
    769. D(H  24,C  21,Lu  0,C  13)   -137.2495         0.001500   
    770. D(H  24,C  21,Lu  0,C  12)    -85.3798         0.001500   
    771. D(H  24,C  21,Lu  0,C  11)    -96.6854         0.001500   
    772. D(H  24,C  21,Lu  0,C   5)     92.1742         0.001500   
    773. D(H  24,C  21,Lu  0,C   4)    119.3859         0.001500   
    774. D(H  24,C  21,Lu  0,C   3)    145.3914         0.001500   
    775. D(H  24,C  21,Lu  0,C   2)    135.2101         0.001500   
    776. D(H  24,C  21,Lu  0,C   1)    101.7672         0.001500   
    777. D(H  24,C  21,Lu  0,C  25)      3.2355         0.001500   
    778. D(H  23,C  21,Lu  0,C  16)    -41.3602         0.001500   
    779. D(H  29,C  25,Lu  0,C  16)      6.7533         0.001560   
    780. D(H  29,C  25,Lu  0,C  14)     61.1808         0.001560   
    781. D(H  29,C  25,Lu  0,C  13)     14.9040         0.001560   
    782. D(H  29,C  25,Lu  0,C  12)     32.4021         0.001560   
    783. D(H  29,C  25,Lu  0,C  11)     60.9845         0.001560   
    784. D(H  29,C  25,Lu  0,C   5)   -161.9887         0.001560   
    785. D(H  29,C  25,Lu  0,C   4)    178.8875         0.001560   
    786. D(H  29,C  25,Lu  0,C   2)   -119.9994         0.001560   
    787. D(H  29,C  25,Lu  0,C   1)   -130.6285         0.001560   
    788. D(H  28,C  25,Lu  0,C  21)     62.1494         0.001560   
    789. D(H  28,C  25,Lu  0,C  14)   -176.8174         0.001560   
    790. D(H  28,C  25,Lu  0,C  13)    136.9059         0.001560   
    791. D(H  28,C  25,Lu  0,C  12)    154.4040         0.001560   
    792. D(H  28,C  25,Lu  0,C  11)   -177.0137         0.001560   
    793. D(H  28,C  25,Lu  0,C   5)    -39.9868         0.001560   
    794. D(H  28,C  25,Lu  0,C   4)    -59.1107         0.001560   
    795. D(H  28,C  25,Lu  0,C   3)    -35.7232         0.001560   
    796. D(H  28,C  25,Lu  0,C   2)      2.0024         0.001560   
    797. D(H  28,C  25,Lu  0,C   1)     -8.6266         0.001560   
    798. D(H  28,C  25,Lu  0,C  16)    128.7552         0.001560   
    799. D(H  27,C  25,Lu  0,C  21)   -178.9150         0.001560   
    800. D(H  27,C  25,Lu  0,C  16)   -112.3092         0.001560   
    801. D(H  27,C  25,Lu  0,C  14)    -57.8817         0.001560   
    802. D(H  29,C  25,Lu  0,C   3)   -157.7250         0.001560   
    803. D(H  27,C  25,Lu  0,C  13)   -104.1585         0.001560   
    804. D(H  27,C  25,Lu  0,C  12)    -86.6604         0.001560   
    805. D(H  27,C  25,Lu  0,C  11)    -58.0780         0.001560   
    806. D(H  27,C  25,Lu  0,C   5)     78.9488         0.001560   
    807. D(H  27,C  25,Lu  0,C   4)     59.8250         0.001560   
    808. D(H  27,C  25,Lu  0,C   3)     83.2125         0.001560   
    809. D(H  27,C  25,Lu  0,C   2)    120.9381         0.001560   
    810. D(H  29,C  25,Lu  0,C  21)    -59.8525         0.001560   
    811. D(H  27,C  25,Lu  0,C   1)    110.3090         0.001560   
    -----------------------------------------------------------------

Number of atoms                         .... 30
Number of degrees of freedom            .... 811

         *************************************************************
         *                GEOMETRY OPTIMIZATION CYCLE   1            *
         *************************************************************
---------------------------------
CARTESIAN COORDINATES (ANGSTROEM)
---------------------------------
  Lu     0.097500    0.491990   -0.311850
  C      0.222770    0.996310    2.223060
  C      1.052190   -0.132830    2.019610
  C      2.172010    0.282580    1.268210
  C      2.024120    1.655400    0.975000
  C      0.826350    2.101250    1.581790
  H      2.787470    2.294690    0.546200
  H      0.508030    3.131910    1.670940
  H     -0.624760    1.045780    2.895080
  H      0.955950   -1.083740    2.530350
  H      3.058550   -0.309540    1.080960
  C      0.929660   -0.028910   -2.712070
  C     -0.303000   -0.709670   -2.593920
  C      1.185650   -1.695060   -1.166750
  C      1.852680   -0.648240   -1.838620
  H      1.174720    0.698350   -3.476850
  C     -0.152810   -1.726880   -1.624090
  H     -1.166350   -0.565730   -3.229420
  H      2.920140   -0.463280   -1.819740
  H      1.657000   -2.449280   -0.547750
  H     -0.866090   -2.519330   -1.432630
  C     -2.340820   -1.680630    1.413410
  H     -2.602270   -1.422870    2.431460
  H     -3.120740   -2.301160    0.990850
  H     -2.248200   -0.764490    0.817830
  C     -1.874320    1.810960   -0.712040
  H     -1.406150   -2.233140    1.411790
  H     -1.664930    2.718670   -1.303740
  H     -2.376900    2.195430    0.188920
  H     -2.677420    1.311480   -1.276000

----------------------------
CARTESIAN COORDINATES (A.U.)
----------------------------
  NO LB      ZA    FRAG     MASS         X           Y           Z
   0 Lu   43.0000*   0   174.967    0.184248    0.929726   -0.589311
   1 C     6.0000    0    12.011    0.420974    1.882753    4.200975
   2 C     6.0000    0    12.011    1.988351   -0.251012    3.816510
   3 C     6.0000    0    12.011    4.104504    0.533999    2.396570
   4 C     6.0000    0    12.011    3.825032    3.128253    1.842483
   5 C     6.0000    0    12.011    1.561575    3.970787    2.989150
   6 H     1.0000    0     1.008    5.267555    4.336336    1.032168
   7 H     1.0000    0     1.008    0.960038    5.918452    3.157619
   8 H     1.0000    0     1.008   -1.180625    1.976238    5.470908
   9 H     1.0000    0     1.008    1.806484   -2.047972    4.781669
  10 H     1.0000    0     1.008    5.779822   -0.584946    2.042718
  11 C     6.0000    0    12.011    1.756803   -0.054632   -5.125070
  12 C     6.0000    0    12.011   -0.572587   -1.341082   -4.901798
  13 C     6.0000    0    12.011    2.240554   -3.203199   -2.204838
  14 C     6.0000    0    12.011    3.501058   -1.224996   -3.474488
  15 H     1.0000    0     1.008    2.219899    1.319690   -6.570294
  16 C     6.0000    0    12.011   -0.288769   -3.263330   -3.069085
  17 H     1.0000    0     1.008   -2.204082   -1.069075   -6.102719
  18 H     1.0000    0     1.008    5.518265   -0.875472   -3.438810
  19 H     1.0000    0     1.008    3.131276   -4.628468   -1.035097
  20 H     1.0000    0     1.008   -1.636673   -4.760844   -2.707278
  21 C     6.0000    0    12.011   -4.423509   -3.175930    2.670958
  22 H     1.0000    0     1.008   -4.917578   -2.688835    4.594794
  23 H     1.0000    0     1.008   -5.897344   -4.348562    1.872435
  24 H     1.0000    0     1.008   -4.248482   -1.444677    1.545475
  25 C     6.0000    0    12.011   -3.541951    3.422218   -1.345561
  26 H     1.0000    0     1.008   -2.657238   -4.220023    2.667896
  27 H     1.0000    0     1.008   -3.146262    5.137542   -2.463712
  28 H     1.0000    0     1.008   -4.491690    4.148761    0.357007
  29 H     1.0000    0     1.008   -5.059591    2.478338   -2.411291
* core charge reduced due to ECP

--------------------------------
INTERNAL COORDINATES (ANGSTROEM)
--------------------------------
 Lu     0   0   0     0.000000000000     0.00000000     0.00000000
 C      1   0   0     2.587624382209     0.00000000     0.00000000
 C      2   1   0     1.415728285548    74.46299088     0.00000000
 C      3   2   1     1.411086198820   107.85800757    67.98752405
 C      4   3   2     1.411551737840   108.28709808   358.49501462
 C      2   1   3     1.412950258466    74.24557848   114.25682360
 H      5   4   3     1.084096105795   125.58473793   169.98917561
 H      6   2   1     1.082374879836   125.56552537   121.57696766
 H      2   1   3     1.082758173463   125.38182325   236.88733953
 H      3   2   1     1.083673065689   125.45736690   235.74202446
 H      4   3   2     1.082414813507   125.52478764   169.97153857
 C      1   2   3     2.593237961314   158.48584661   311.04605473
 C     12   1   2     1.413097404888    74.89789070   146.89828623
 C     13  12   1     2.285582307313    72.04630344   293.25657421
 C     14  13  12     1.411442676909    71.98981454   359.42107232
 H     12   1   2     1.083443565489   126.23432618   270.03512290
 C     13  12   1     1.413450900845   108.14226978   294.14526553
 H     13  12   1     1.081643285053   125.66402274   121.75708178
 H     15  14  13     1.083530113841   125.72443027   190.35676654
 H     14  13  12     1.083595695313   160.06823935   205.20785268
 H     17  13  12     1.083236951225   125.29473124   190.87384271
 C     21  17  13     3.313335169357   105.05348712   254.55905641
 H     22  21  17     1.082230161565   167.38014330   299.01708098
 H     22  21  17     1.082538517051    80.80929105   155.32332471
 H     22  21  17     1.096634168900    72.98466530    41.95126763
 C      1   2   3     2.405807143019    95.49631625   163.42767172
 H     22  21  17     1.085761453267    59.11992757   274.25809537
 H     26   1   2     1.103580765599   112.61987637   110.30900344
 H     26   1   2     1.100969009055   115.43395641   351.37337559
 H     26   1   2     1.101136123284   115.73949582   229.37150550

---------------------------
INTERNAL COORDINATES (A.U.)
---------------------------
 Lu     0   0   0     0.000000000000     0.00000000     0.00000000
 C      1   0   0     4.889901419831     0.00000000     0.00000000
 C      2   1   0     2.675338739731    74.46299088     0.00000000
 C      3   2   1     2.666566467126   107.85800757    67.98752405
 C      4   3   2     2.667446208379   108.28709808   358.49501462
 C      2   1   3     2.670089029355    74.24557848   114.25682360
 H      5   4   3     2.048644742803   125.58473793   169.98917561
 H      6   2   1     2.045392097126   125.56552537   121.57696766
 H      2   1   3     2.046116417109   125.38182325   236.88733953
 H      3   2   1     2.047845312859   125.45736690   235.74202446
 H      4   3   2     2.045467560828   125.52478764   169.97153857
 C      1   2   3     4.900509546972   158.48584661   311.04605473
 C     12   1   2     2.670367095792    74.89789070   146.89828623
 C     13  12   1     4.319124617356    72.04630344   293.25657421
 C     14  13  12     2.667240113087    71.98981454   359.42107232
 H     12   1   2     2.047411620334   126.23432618   270.03512290
 C     13  12   1     2.671035106342   108.14226978   294.14526553
 H     13  12   1     2.044009583345   125.66402274   121.75708178
 H     15  14  13     2.047575173016   125.72443027   190.35676654
 H     14  13  12     2.047699104037   160.06823935   205.20785268
 H     17  13  12     2.047021175960   125.29473124   190.87384271
 C     21  17  13     6.261296059975   105.05348712   254.55905641
 H     22  21  17     2.045118619226   167.38014330   299.01708098
 H     22  21  17     2.045701326649    80.80929105   155.32332471
 H     22  21  17     2.072338248322    72.98466530    41.95126763
 C      1   2   3     4.546316631337    95.49631625   163.42767172
 H     22  21  17     2.051791793443    59.11992757   274.25809537
 H     26   1   2     2.085465413645   112.61987637   110.30900344
 H     26   1   2     2.080529909049   115.43395641   351.37337559
 H     26   1   2     2.080845709174   115.73949582   229.37150550

---------------------
BASIS SET INFORMATION
---------------------
There are 3 groups of distinct atoms

 Group   1 Type Lu  : 14s13p9d7f1g contracted to 10s7p4d3f1g pattern {5111111111/5311111/6111/511/1}
 Group   2 Type C   : 8s4p1d contracted to 4s2p1d pattern {5111/31/1}
 Group   3 Type H   : 4s contracted to 2s pattern {31}

Atom   0Lu   basis set group =>   1
Atom   1C    basis set group =>   2
Atom   2C    basis set group =>   2
Atom   3C    basis set group =>   2
Atom   4C    basis set group =>   2
Atom   5C    basis set group =>   2
Atom   6H    basis set group =>   3
Atom   7H    basis set group =>   3
Atom   8H    basis set group =>   3
Atom   9H    basis set group =>   3
Atom  10H    basis set group =>   3
Atom  11C    basis set group =>   2
Atom  12C    basis set group =>   2
Atom  13C    basis set group =>   2
Atom  14C    basis set group =>   2
Atom  15H    basis set group =>   3
Atom  16C    basis set group =>   2
Atom  17H    basis set group =>   3
Atom  18H    basis set group =>   3
Atom  19H    basis set group =>   3
Atom  20H    basis set group =>   3
Atom  21C    basis set group =>   2
Atom  22H    basis set group =>   3
Atom  23H    basis set group =>   3
Atom  24H    basis set group =>   3
Atom  25C    basis set group =>   2
Atom  26H    basis set group =>   3
Atom  27H    basis set group =>   3
Atom  28H    basis set group =>   3
Atom  29H    basis set group =>   3
---------------------------------
AUXILIARY/J BASIS SET INFORMATION
---------------------------------
There are 3 groups of distinct atoms

 Group   1 Type Lu  : 18s7p6d6f6g3h5i contracted to 14s7p6d6f5g2h2i pattern {51111111111111/1111111/111111/111111/21111/21/41}
 Group   2 Type C   : 12s5p4d2f1g contracted to 6s4p3d1f1g pattern {711111/2111/211/2/1}
 Group   3 Type H   : 5s2p1d contracted to 3s1p1d pattern {311/2/1}

Atom   0Lu   basis set group =>   1
Atom   1C    basis set group =>   2
Atom   2C    basis set group =>   2
Atom   3C    basis set group =>   2
Atom   4C    basis set group =>   2
Atom   5C    basis set group =>   2
Atom   6H    basis set group =>   3
Atom   7H    basis set group =>   3
Atom   8H    basis set group =>   3
Atom   9H    basis set group =>   3
Atom  10H    basis set group =>   3
Atom  11C    basis set group =>   2
Atom  12C    basis set group =>   2
Atom  13C    basis set group =>   2
Atom  14C    basis set group =>   2
Atom  15H    basis set group =>   3
Atom  16C    basis set group =>   2
Atom  17H    basis set group =>   3
Atom  18H    basis set group =>   3
Atom  19H    basis set group =>   3
Atom  20H    basis set group =>   3
Atom  21C    basis set group =>   2
Atom  22H    basis set group =>   3
Atom  23H    basis set group =>   3
Atom  24H    basis set group =>   3
Atom  25C    basis set group =>   2
Atom  26H    basis set group =>   3
Atom  27H    basis set group =>   3
Atom  28H    basis set group =>   3
Atom  29H    basis set group =>   3
-------------------------
ECP PARAMETER INFORMATION
-------------------------

 Group 1, Type Lu ECP Def2-ECP (replacing 28 core electrons, lmax=5)

Atom   0Lu   ECP group =>   1



           ************************************************************
           *        Program running with 4 parallel MPI-processes     *
           *              working on a common directory               *
           ************************************************************
[...]
      dxz     :     0.007034
      dyz     :     0.008630
      dx2y2   :     0.011049
      dxy     :     0.010490
  2 C s       :     3.278389  s :     3.278389
      pz      :     1.023663  p :     2.985190
      px      :     0.933260
      py      :     1.028267
      dz2     :     0.006238  d :     0.042597
      dxz     :     0.007151
      dyz     :     0.007630
      dx2y2   :     0.011867
      dxy     :     0.009710
  3 C s       :     3.269063  s :     3.269063
      pz      :     0.994379  p :     2.944392
      px      :     0.995612
      py      :     0.954401
      dz2     :     0.007361  d :     0.042909
      dxz     :     0.006381
      dyz     :     0.006846
      dx2y2   :     0.009711
      dxy     :     0.012610
  4 C s       :     3.285668  s :     3.285668
      pz      :     1.051185  p :     2.994505
      px      :     0.992683
      py      :     0.950637
      dz2     :     0.003533  d :     0.042493
      dxz     :     0.008209
      dyz     :     0.009219
      dx2y2   :     0.011528
      dxy     :     0.010005
  5 C s       :     3.278625  s :     3.278625
      pz      :     0.982738  p :     2.945573
      px      :     0.937613
      py      :     1.025221
      dz2     :     0.007826  d :     0.042885
      dxz     :     0.005812
      dyz     :     0.006743
      dx2y2   :     0.010533
      dxy     :     0.011971
  6 H s       :     0.759270  s :     0.759270
  7 H s       :     0.751252  s :     0.751252
  8 H s       :     0.755085  s :     0.755085
  9 H s       :     0.763060  s :     0.763060
 10 H s       :     0.766097  s :     0.766097
 11 C s       :     3.287817  s :     3.287817
      pz      :     1.023771  p :     2.992885
      px      :     0.932685
      py      :     1.036430
      dz2     :     0.006780  d :     0.042541
      dxz     :     0.008776
      dyz     :     0.006756
      dx2y2   :     0.008899
      dxy     :     0.011330
 12 C s       :     3.276170  s :     3.276170
      pz      :     1.011775  p :     2.939018
      px      :     0.962452
      py      :     0.964791
      dz2     :     0.006052  d :     0.042783
      dxz     :     0.009607
      dyz     :     0.006965
      dx2y2   :     0.010469
      dxy     :     0.009689
 13 C s       :     3.277876  s :     3.277876
      pz      :     1.047786  p :     2.983895
      px      :     0.905822
      py      :     1.030287
      dz2     :     0.004254  d :     0.042517
      dxz     :     0.009492
      dyz     :     0.008512
      dx2y2   :     0.009707
      dxy     :     0.010551
 14 C s       :     3.270297  s :     3.270297
      pz      :     0.990952  p :     2.950061
      px      :     1.020475
      py      :     0.938634
      dz2     :     0.008061  d :     0.042952
      dxz     :     0.008444
      dyz     :     0.005324
      dx2y2   :     0.011845
      dxy     :     0.009279
 15 H s       :     0.758924  s :     0.758924
 16 C s       :     3.277288  s :     3.277288
      pz      :     0.979938  p :     2.965545
      px      :     1.001669
      py      :     0.983938
      dz2     :     0.008644  d :     0.042819
      dxz     :     0.007367
      dyz     :     0.005597
      dx2y2   :     0.010523
      dxy     :     0.010688
 17 H s       :     0.751379  s :     0.751379
 18 H s       :     0.764877  s :     0.764877
 19 H s       :     0.762003  s :     0.762003
 20 H s       :     0.756841  s :     0.756841
 21 C s       :     3.476937  s :     3.476937
      pz      :     1.157528  p :     3.429799
      px      :     1.122659
      py      :     1.149613
      dz2     :     0.009509  d :     0.029896
      dxz     :     0.002416
      dyz     :     0.004940
      dx2y2   :     0.007082
      dxy     :     0.005949
 22 H s       :     0.753743  s :     0.753743
 23 H s       :     0.752413  s :     0.752413
 24 H s       :     0.734819  s :     0.734819
 25 C s       :     3.477202  s :     3.477202
      pz      :     1.096055  p :     3.583546
      px      :     1.308864
      py      :     1.178627
      dz2     :     0.002032  d :     0.023862
      dxz     :     0.005928
      dyz     :     0.008843
      dx2y2   :     0.002807
      dxy     :     0.004252
 26 H s       :     0.772096  s :     0.772096
 27 H s       :     0.781042  s :     0.781042
 28 H s       :     0.780428  s :     0.780428
 29 H s       :     0.781343  s :     0.781343


                     *******************************
                     * LOEWDIN POPULATION ANALYSIS *
                     *******************************

----------------------
LOEWDIN ATOMIC CHARGES
----------------------
   0 Lu:   -0.022248
   1 C :   -0.133843
   2 C :   -0.149450
   3 C :   -0.128083
   4 C :   -0.151023
   5 C :   -0.128257
   6 H :    0.155301
   7 H :    0.160110
   8 H :    0.157878
   9 H :    0.152787
  10 H :    0.152314
  11 C :   -0.149716
  12 C :   -0.125060
  13 C :   -0.148310
  14 C :   -0.130300
  15 H :    0.155610
  16 C :   -0.139081
  17 H :    0.160596
  18 H :    0.152748
  19 H :    0.153469
  20 H :    0.156399
  21 C :   -0.500034
  22 H :    0.140081
  23 H :    0.140175
  24 H :    0.160367
  25 C :   -0.648249
  26 H :    0.142164
  27 H :    0.143241
  28 H :    0.134685
  29 H :    0.135730

-------------------------------
LOEWDIN REDUCED ORBITAL CHARGES
-------------------------------
  0 Lus       :     4.333162  s :     4.333162
      pz      :     4.286106  p :    12.904461
      px      :     4.330763
      py      :     4.287592
      dz2     :     2.473296  d :    11.683034
      dxz     :     2.312840
      dyz     :     2.264747
      dx2y2   :     2.270290
      dxy     :     2.361861
      f0      :     2.023374  f :    14.095781
      f+1     :     2.009936
      f-1     :     2.012786
      f+2     :     2.015818
      f-2     :     2.015240
      f+3     :     2.007149
      f-3     :     2.011478
      g0      :     0.000838  g :     0.005809
      g+1     :     0.000631
      g-1     :     0.000851
      g+2     :     0.000704
      g-2     :     0.000662
      g+3     :     0.000574
      g-3     :     0.000656
      g+4     :     0.000395
      g-4     :     0.000497
  1 C s       :     2.869515  s :     2.869515
      pz      :     1.041983  p :     3.170146
      px      :     1.072931
      py      :     1.055231
      dz2     :     0.010879  d :     0.094183
      dxz     :     0.012681
      dyz     :     0.019696
      dx2y2   :     0.024200
      dxy     :     0.026726
  2 C s       :     2.869581  s :     2.869581
      pz      :     1.049270  p :     3.185910
      px      :     1.059895
      py      :     1.076745
      dz2     :     0.012358  d :     0.093959
      dxz     :     0.016434
      dyz     :     0.014757
      dx2y2   :     0.026458
      dxy     :     0.023951
  3 C s       :     2.869914  s :     2.869914
      pz      :     1.040505  p :     3.163475
      px      :     1.057347
      py      :     1.065623
      dz2     :     0.014632  d :     0.094694
      dxz     :     0.014021
      dyz     :     0.015060
      dx2y2   :     0.024160
      dxy     :     0.026821
  4 C s       :     2.869280  s :     2.869280
      pz      :     1.067661  p :     3.188156
      px      :     1.059712
      py      :     1.060784
      dz2     :     0.006494  d :     0.093587
      dxz     :     0.016111
      dyz     :     0.019492
      dx2y2   :     0.027889
      dxy     :     0.023601
  5 C s       :     2.869865  s :     2.869865
      pz      :     1.038476  p :     3.164068
      px      :     1.054409
      py      :     1.071183
      dz2     :     0.015363  d :     0.094324
      dxz     :     0.013568
      dyz     :     0.014754
      dx2y2   :     0.024187
      dxy     :     0.026451
  6 H s       :     0.844699  s :     0.844699
  7 H s       :     0.839890  s :     0.839890
  8 H s       :     0.842122  s :     0.842122
  9 H s       :     0.847213  s :     0.847213
 10 H s       :     0.847686  s :     0.847686
 11 C s       :     2.869810  s :     2.869810
      pz      :     1.052368  p :     3.186222
      px      :     1.060653
      py      :     1.073201
      dz2     :     0.013786  d :     0.093683
      dxz     :     0.019926
      dyz     :     0.013293
      dx2y2   :     0.020890
      dxy     :     0.025788
 12 C s       :     2.870132  s :     2.870132
      pz      :     1.041895  p :     3.160738
      px      :     1.066834
      py      :     1.052009
      dz2     :     0.012224  d :     0.094190
      dxz     :     0.019495
      dyz     :     0.015262
      dx2y2   :     0.025795
      dxy     :     0.021414
 13 C s       :     2.869325  s :     2.869325
      pz      :     1.067935  p :     3.185086
      px      :     1.059544
      py      :     1.057607
      dz2     :     0.008009  d :     0.093899
      dxz     :     0.022519
      dyz     :     0.014973
      dx2y2   :     0.023002
      dxy     :     0.025396
 14 C s       :     2.869777  s :     2.869777
      pz      :     1.047298  p :     3.165824
      px      :     1.071601
      py      :     1.046925
      dz2     :     0.016519  d :     0.094699
      dxz     :     0.017649
      dyz     :     0.013178
      dx2y2   :     0.024608
      dxy     :     0.022744
 15 H s       :     0.844390  s :     0.844390
 16 C s       :     2.870046  s :     2.870046
      pz      :     1.049586  p :     3.174793
      px      :     1.071827
      py      :     1.053379
      dz2     :     0.017393  d :     0.094242
      dxz     :     0.016447
      dyz     :     0.013671
      dx2y2   :     0.023706
      dxy     :     0.023025
 17 H s       :     0.839404  s :     0.839404
 18 H s       :     0.847252  s :     0.847252
 19 H s       :     0.846531  s :     0.846531
 20 H s       :     0.843601  s :     0.843601
 21 C s       :     2.994561  s :     2.994561
      pz      :     1.161011  p :     3.457089
      px      :     1.141742
      py      :     1.154336
      dz2     :     0.015373  d :     0.048383
      dxz     :     0.003902
      dyz     :     0.007774
      dx2y2   :     0.011480
      dxy     :     0.009854
 22 H s       :     0.859919  s :     0.859919
 23 H s       :     0.859825  s :     0.859825
 24 H s       :     0.839633  s :     0.839633
 25 C s       :     3.003461  s :     3.003461
      pz      :     1.107775  p :     3.605489
      px      :     1.312703
      py      :     1.185011
      dz2     :     0.003762  d :     0.039298
      dxz     :     0.009424
      dyz     :     0.014332
      dx2y2   :     0.004461
      dxy     :     0.007319
 26 H s       :     0.857836  s :     0.857836
 27 H s       :     0.856759  s :     0.856759
 28 H s       :     0.865315  s :     0.865315
 29 H s       :     0.864270  s :     0.864270


                      *****************************
                      * MAYER POPULATION ANALYSIS *
                      *****************************

  NA   - Mulliken gross atomic population
  ZA   - Total nuclear charge
  QA   - Mulliken gross atomic charge
  VA   - Mayer's total valence
  BVA  - Mayer's bonded valence
  FA   - Mayer's free valence

  ATOM       NA         ZA         QA         VA         BVA        FA
  0 Lu    42.1677    43.0000     0.8323     3.6445     3.6445    -0.0000
  1 C      6.2797     6.0000    -0.2797     3.7775     3.7775    -0.0000
  2 C      6.3062     6.0000    -0.3062     3.7796     3.7796     0.0000
  3 C      6.2564     6.0000    -0.2564     3.7754     3.7754    -0.0000
  4 C      6.3227     6.0000    -0.3227     3.7774     3.7774     0.0000
  5 C      6.2671     6.0000    -0.2671     3.7719     3.7719     0.0000
  6 H      0.7593     1.0000     0.2407     0.9161     0.9161    -0.0000
  7 H      0.7513     1.0000     0.2487     0.9119     0.9119     0.0000
  8 H      0.7551     1.0000     0.2449     0.9138     0.9138     0.0000
  9 H      0.7631     1.0000     0.2369     0.9181     0.9181     0.0000
 10 H      0.7661     1.0000     0.2339     0.9198     0.9198    -0.0000
 11 C      6.3232     6.0000    -0.3232     3.7808     3.7808    -0.0000
 12 C      6.2580     6.0000    -0.2580     3.7729     3.7729     0.0000
 13 C      6.3043     6.0000    -0.3043     3.7806     3.7806    -0.0000
 14 C      6.2633     6.0000    -0.2633     3.7753     3.7753    -0.0000
 15 H      0.7589     1.0000     0.2411     0.9156     0.9156     0.0000
 16 C      6.2857     6.0000    -0.2857     3.7727     3.7727    -0.0000
 17 H      0.7514     1.0000     0.2486     0.9130     0.9130    -0.0000
 18 H      0.7649     1.0000     0.2351     0.9187     0.9187    -0.0000
 19 H      0.7620     1.0000     0.2380     0.9174     0.9174     0.0000
 20 H      0.7568     1.0000     0.2432     0.9139     0.9139     0.0000
 21 C      6.9366     6.0000    -0.9366     3.7038     3.7038    -0.0000
 22 H      0.7537     1.0000     0.2463     0.9024     0.9024    -0.0000
 23 H      0.7524     1.0000     0.2476     0.9026     0.9026    -0.0000
 24 H      0.7348     1.0000     0.2652     0.8916     0.8916     0.0000
 25 C      7.0846     6.0000    -1.0846     3.5600     3.5600    -0.0000
 26 H      0.7721     1.0000     0.2279     0.9061     0.9061    -0.0000
 27 H      0.7810     1.0000     0.2190     0.9097     0.9097     0.0000
 28 H      0.7804     1.0000     0.2196     0.9082     0.9082    -0.0000
 29 H      0.7813     1.0000     0.2187     0.9084     0.9084     0.0000

  Mayer bond orders larger than 0.100000
B(  0-Lu,  1-C ) :   0.2535 B(  0-Lu,  2-C ) :   0.2702 B(  0-Lu,  3-C ) :   0.2534 
B(  0-Lu,  4-C ) :   0.2784 B(  0-Lu,  5-C ) :   0.2465 B(  0-Lu, 11-C ) :   0.2782 
B(  0-Lu, 12-C ) :   0.2353 B(  0-Lu, 13-C ) :   0.2686 B(  0-Lu, 14-C ) :   0.2531 
B(  0-Lu, 16-C ) :   0.2645 B(  0-Lu, 25-C ) :   0.8216 B(  1-C ,  2-C ) :   1.2732 
B(  1-C ,  5-C ) :   1.3136 B(  1-C ,  8-H ) :   0.9120 B(  2-C ,  3-C ) :   1.2992 
B(  2-C ,  9-H ) :   0.9154 B(  3-C ,  4-C ) :   1.2872 B(  3-C , 10-H ) :   0.9174 
B(  4-C ,  5-C ) :   1.2754 B(  4-C ,  6-H ) :   0.9148 B(  5-C ,  7-H ) :   0.9111 
B( 11-C , 12-C ) :   1.2815 B( 11-C , 14-C ) :   1.2886 B( 11-C , 15-H ) :   0.9149 
B( 12-C , 16-C ) :   1.3114 B( 12-C , 17-H ) :   0.9119 B( 13-C , 14-C ) :   1.2974 
B( 13-C , 16-C ) :   1.2714 B( 13-C , 19-H ) :   0.9145 B( 14-C , 18-H ) :   0.9166 
B( 16-C , 20-H ) :   0.9118 B( 21-C , 22-H ) :   0.9176 B( 21-C , 23-H ) :   0.9179 
B( 21-C , 24-H ) :   0.8839 B( 21-C , 26-H ) :   0.9027 B( 25-C , 27-H ) :   0.8983 
B( 25-C , 28-H ) :   0.9043 B( 25-C , 29-H ) :   0.9028 

-------
TIMINGS
-------

Total SCF time: 0 days 0 hours 0 min 43 sec 

Total time                  ....      43.436 sec
Sum of individual times     ....      42.921 sec  ( 98.8%)

Fock matrix formation       ....      41.511 sec  ( 95.6%)
  Split-RI-J                ....       3.801 sec  (  9.2% of F)
  Chain of spheres X        ....      35.971 sec  ( 86.7% of F)
  XC integration            ....       1.679 sec  (  4.0% of F)
    Basis function eval.    ....       0.675 sec  ( 40.2% of XC)
    Density eval.           ....       0.399 sec  ( 23.8% of XC)
    XC-Functional eval.     ....       0.124 sec  (  7.4% of XC)
    XC-Potential eval.      ....       0.325 sec  ( 19.3% of XC)
Diagonalization             ....       0.123 sec  (  0.3%)
Density matrix formation    ....       0.008 sec  (  0.0%)
Population analysis         ....       0.049 sec  (  0.1%)
Initial guess               ....       0.020 sec  (  0.0%)
Orbital Transformation      ....       0.000 sec  (  0.0%)
Orbital Orthonormalization  ....       0.013 sec  (  0.0%)
DIIS solution               ....       0.069 sec  (  0.2%)
Grid generation             ....       1.141 sec  (  2.6%)

Maximum memory used throughout the entire SCF-calculation: 95.0 MB


-------------------------------------------------------------------------------
                          DFT DISPERSION CORRECTION                            
                                                                               
                              DFTD3 V3.1  Rev 1                                
                          USING Becke-Johnson damping                          
-------------------------------------------------------------------------------
The PBEh-3c composite method is recognized
Using three-body term ABC
Active option DFTDOPT                   ...         4   

molecular C6(AA) [au] = 10146.804061 


            DFT-D V3
 parameters
 s6 scaling factor         :     1.0000 
 a1 scaling factor         :     0.4860 
 s8 scaling factor         :     0.0000 
 a2 scaling factor         :     4.5000 
 Damping factor alpha9(ATM):    16.0000 
 ad hoc parameters k1-k3   :    16.0000     1.3333    -4.0000 

 Edisp/kcal,au: -11.218615248469  -0.017877999481 
 E6   /kcal   : -11.413045686 
 E8   /kcal   :  -0.000000000 
 E6(ABC)      :   0.194430437 
 % E8         :   0.000000000 
 % E6(ABC)    :  -1.733105495 

-------------------------   ----------------
Dispersion correction           -0.017877999
-------------------------   ----------------

 ** NOTE ** -> element lu will be treated as sc
NOTIFICATION: Different basis set in ORCA and otool_gcp:
ORCA: 295  gCP: 245 
If you are NOT using ECPs, check your basis set inputs!
------------------   -----------------
gCP correction             0.034332240
------------------   -----------------

-------------------------   --------------------
FINAL SINGLE POINT ENERGY     -1702.396647739472
-------------------------   --------------------

                                *** OPTIMIZATION RUN DONE ***

                            ***************************************
                            *     ORCA property calculations      *
                            ***************************************

                                    ---------------------
                                    Active property flags
                                    ---------------------
   (+) Dipole Moment


------------------------------------------------------------------------------
                       ORCA ELECTRIC PROPERTIES CALCULATION
------------------------------------------------------------------------------

Dipole Moment Calculation                       ... on
Quadrupole Moment Calculation                   ... off
Polarizability Calculation                      ... off
GBWName                                         ... reaction-7-prod-pbeh3c-orca_opt.gbw
Electron density                                ... reaction-7-prod-pbeh3c-orca_opt.scfp
The origin for moment calculation is the CENTER OF MASS  = ( 0.450488,  0.450614 -0.352066)

-------------
DIPOLE MOMENT
-------------
                                X             Y             Z
Electronic contribution:     -0.62440      20.18954     -12.07879
Nuclear contribution   :      0.93545     -20.64956      12.28431
                        -----------------------------------------
Total Dipole Moment    :      0.31106      -0.46002       0.20552
                        -----------------------------------------
Magnitude (a.u.)       :      0.59213
Magnitude (Debye)      :      1.50507



--------------------
Rotational spectrum 
--------------------
 
Rotational constants in cm-1:     0.028889     0.020044     0.017949 
Rotational constants in MHz :   866.064261   600.895693   538.097570 

 Dipole components along the rotational axes: 
x,y,z [a.u.] :    -0.003012     0.091361    -0.585029 
x,y,z [Debye]:    -0.007655     0.232220    -1.487025 

 

Timings for individual modules:

Sum of individual times         ...     3389.919 sec (=  56.499 min)
GTO integral calculation        ...       63.671 sec (=   1.061 min)   1.9 %
SCF iterations                  ...     2434.974 sec (=  40.583 min)  71.8 %
SCF Gradient evaluation         ...      863.011 sec (=  14.384 min)  25.5 %
Geometry relaxation             ...       28.262 sec (=   0.471 min)   0.8 %
                             ****ORCA TERMINATED NORMALLY****
TOTAL RUN TIME: 0 days 0 hours 56 minutes 57 seconds 565 msec
