
                                 *****************
                                 * O   R   C   A *
                                 *****************

                                            #,                                       
                                            ###                                      
                                            ####                                     
                                            #####                                    
                                            ######                                   
                                           ########,                                 
                                     ,,################,,,,,                         
                               ,,#################################,,                 
                          ,,##########################################,,             
                       ,#########################################, ''#####,          
                    ,#############################################,,   '####,        
                  ,##################################################,,,,####,       
                ,###########''''           ''''###############################       
              ,#####''   ,,,,##########,,,,          '''####'''          '####       
            ,##' ,,,,###########################,,,                        '##       
           ' ,,###''''                  '''############,,,                           
         ,,##''                                '''############,,,,        ,,,,,,###''
      ,#''                                            '''#######################'''  
     '                                                          ''''####''''         
             ,#######,   #######,   ,#######,      ##                                
            ,#'     '#,  ##    ##  ,#'     '#,    #''#        ######   ,####,        
            ##       ##  ##   ,#'  ##            #'  '#       #        #'  '#        
            ##       ##  #######   ##           ,######,      #####,   #    #        
            '#,     ,#'  ##    ##  '#,     ,#' ,#      #,         ##   #,  ,#        
             '#######'   ##     ##  '#######'  #'      '#     #####' # '####'        



                  #######################################################
                  #                        -***-                        #
                  #          Department of theory and spectroscopy      #
                  #    Directorship and core code : Frank Neese         #
                  #        Max Planck Institute fuer Kohlenforschung    #
                  #                Kaiser Wilhelm Platz 1               #
                  #                 D-45470 Muelheim/Ruhr               #
                  #                      Germany                        #
                  #                                                     #
                  #                  All rights reserved                #
                  #                        -***-                        #
                  #######################################################


                         Program Version 5.0.3 -  RELEASE  -


 With contributions from (in alphabetic order):
   Daniel Aravena         : Magnetic Suceptibility
   Michael Atanasov       : Ab Initio Ligand Field Theory (pilot matlab implementation)
   Alexander A. Auer      : GIAO ZORA, VPT2 properties, NMR spectrum
   Ute Becker             : Parallelization
   Giovanni Bistoni       : ED, misc. LED, open-shell LED, HFLD
   Martin Brehm           : Molecular dynamics
   Dmytro Bykov           : SCF Hessian
   Vijay G. Chilkuri      : MRCI spin determinant printing, contributions to CSF-ICE
   Dipayan Datta          : RHF DLPNO-CCSD density
   Achintya Kumar Dutta   : EOM-CC, STEOM-CC
   Dmitry Ganyushin       : Spin-Orbit,Spin-Spin,Magnetic field MRCI
   Miquel Garcia          : C-PCM and meta-GGA Hessian, CC/C-PCM, Gaussian charge scheme
   Yang Guo               : DLPNO-NEVPT2, F12-NEVPT2, CIM, IAO-localization
   Andreas Hansen         : Spin unrestricted coupled pair/coupled cluster methods
   Benjamin Helmich-Paris : MC-RPA, TRAH-SCF, COSX integrals
   Lee Huntington         : MR-EOM, pCC
   Robert Izsak           : Overlap fitted RIJCOSX, COSX-SCS-MP3, EOM
   Marcus Kettner         : VPT2
   Christian Kollmar      : KDIIS, OOCD, Brueckner-CCSD(T), CCSD density, CASPT2, CASPT2-K
   Simone Kossmann        : Meta GGA functionals, TD-DFT gradient, OOMP2, MP2 Hessian
   Martin Krupicka        : Initial AUTO-CI
   Lucas Lang             : DCDCAS
   Marvin Lechner         : AUTO-CI (C++ implementation), FIC-MRCC
   Dagmar Lenk            : GEPOL surface, SMD
   Dimitrios Liakos       : Extrapolation schemes; Compound Job, initial MDCI parallelization
   Dimitrios Manganas     : Further ROCIS development; embedding schemes
   Dimitrios Pantazis     : SARC Basis sets
   Anastasios Papadopoulos: AUTO-CI, single reference methods and gradients
   Taras Petrenko         : DFT Hessian,TD-DFT gradient, ASA, ECA, R-Raman, ABS, FL, XAS/XES, NRVS
   Peter Pinski           : DLPNO-MP2, DLPNO-MP2 Gradient
   Christoph Reimann      : Effective Core Potentials
   Marius Retegan         : Local ZFS, SOC
   Christoph Riplinger    : Optimizer, TS searches, QM/MM, DLPNO-CCSD(T), (RO)-DLPNO pert. Triples
   Tobias Risthaus        : Range-separated hybrids, TD-DFT gradient, RPA, STAB
   Michael Roemelt        : Original ROCIS implementation
   Masaaki Saitow         : Open-shell DLPNO-CCSD energy and density
   Barbara Sandhoefer     : DKH picture change effects
   Avijit Sen             : IP-ROCIS
   Kantharuban Sivalingam : CASSCF convergence, NEVPT2, FIC-MRCI
   Bernardo de Souza      : ESD, SOC TD-DFT
   Georgi Stoychev        : AutoAux, RI-MP2 NMR, DLPNO-MP2 response
   Willem Van den Heuvel  : Paramagnetic NMR
   Boris Wezisla          : Elementary symmetry handling
   Frank Wennmohs         : Technical directorship


 We gratefully acknowledge several colleagues who have allowed us to
 interface, adapt or use parts of their codes:
   Stefan Grimme, W. Hujo, H. Kruse, P. Pracht,  : VdW corrections, initial TS optimization,
                  C. Bannwarth, S. Ehlert          DFT functionals, gCP, sTDA/sTD-DF
   Ed Valeev, F. Pavosevic, A. Kumar             : LibInt (2-el integral package), F12 methods
   Garnet Chan, S. Sharma, J. Yang, R. Olivares  : DMRG
   Ulf Ekstrom                                   : XCFun DFT Library
   Mihaly Kallay                                 : mrcc  (arbitrary order and MRCC methods)
   Jiri Pittner, Ondrej Demel                    : Mk-CCSD
   Frank Weinhold                                : gennbo (NPA and NBO analysis)
   Christopher J. Cramer and Donald G. Truhlar   : smd solvation model
   Lars Goerigk                                  : TD-DFT with DH, B97 family of functionals
   V. Asgeirsson, H. Jonsson                     : NEB implementation
   FAccTs GmbH                                   : IRC, NEB, NEB-TS, DLPNO-Multilevel, CI-OPT
                                                   MM, QMMM, 2- and 3-layer-ONIOM, Crystal-QMMM,
                                                   LR-CPCM, SF, NACMEs, symmetry and pop. for TD-DFT,
                                                   nearIR, NL-DFT gradient (VV10), updates on ESD,
                                                   ML-optimized integration grids
   S Lehtola, MJT Oliveira, MAL Marques          : LibXC Library
   Liviu Ungur et al                             : ANISO software


 Your calculation uses the libint2 library for the computation of 2-el integrals
 For citations please refer to: http://libint.valeyev.net

 Your ORCA version has been built with support for libXC version: 5.1.0
 For citations please refer to: https://tddft.org/programs/libxc/

 This ORCA versions uses:
   CBLAS   interface :  Fast vector & matrix operations
   LAPACKE interface :  Fast linear algebra routines
   SCALAPACK package :  Parallel linear algebra routines
   Shared memory     :  Shared parallel matrices
   BLAS/LAPACK       :  OpenBLAS 0.3.15  USE64BITINT DYNAMIC_ARCH NO_AFFINITY SkylakeX SINGLE_THREADED
        Core in use  :  SkylakeX
   Copyright (c) 2011-2014, The OpenBLAS Project


Your calculation utilizes the geometrical counterpoise correction gCP
Please cite in your paper:
H.Kruse, S. Grimme J.Chem.Phys., 136, (2012), 154101 
   

Your calculation utilizes the atom-pairwise dispersion correction
with the Becke-Johnson damping scheme (D3BJ)
Cite in your paper:
S.Grimme, S.Ehrlich, L.Goerigk, J Comput Chem, (2011), 32, 1456–1465 
S.Grimme, J.Antony, S.Ehrlich and H.Krieg, J.Chem.Phys., 132, (2010), 154104 
   

Your calculation employs the composite approach PBEh-3c.
Please cite in your paper:
S. Grimme, J. G. Brandenburg, C. Bannwarth, A. Hansen J.Chem.Phys., 143, (2015), 054107 
   

================================================================================

----- Orbital basis set information -----
Your calculation utilizes the basis: def2-mSVP

----- AuxJ basis set information -----
Your calculation utilizes the auxiliary basis: def2/J
   F. Weigend, Phys. Chem. Chem. Phys. 8, 1057 (2006).

================================================================================
                                        WARNINGS
                       Please study these warnings very carefully!
================================================================================


INFO   : the flag for use of the SHARK integral package has been found!

================================================================================
                                       INPUT FILE
================================================================================
NAME = 5_2_orca.inp
|  1> ! EnGrad PBEh-3c
|  2> %output 
|  3> xyzfile=True 
|  4> end 
|  5> %scf 
|  6> maxiter 250 
|  7> end
|  8> %output
|  9> Print[P_Hirshfeld] = 1
| 10> end
| 11> % maxcore
| 12> 4000
| 13> *xyz 1 1
| 14> Sc   1.64430041  -1.24764098  -1.53295834 
| 15> C    0.41175352  -0.61716207   0.21821758 
| 16> N   -0.47708294  -1.35859252   0.92247662 
| 17> C   -0.80282345  -0.76684912   2.11597504 
| 18> C   -0.15101634   0.41166327   2.15364381 
| 19> N    0.56807603   0.50081621   0.98415720 
| 20> C    1.43163775   1.63156573   0.60171421 
| 21> H    1.53480204   2.30568308   1.45249756 
| 22> H    0.99127499   2.16811943  -0.22470895 
| 23> H    2.42970902   1.26663211   0.35001439 
| 24> C   -0.98938670  -2.67119216   0.55559837 
| 25> H   -0.59118661  -2.97101480  -0.41270702 
| 26> H   -2.07314665  -2.64331330   0.48340741 
| 27> H   -0.69722018  -3.41584905   1.29799353 
| 28> H   -1.44851577  -1.21378100   2.84291082 
| 29> H   -0.13467728   1.18181766   2.89400295 
| 30> C   -0.35063331   1.61904213  -2.88727727 
| 31> H   -0.98397560   1.65568412  -3.75234980 
| 32> H    0.32135895   2.55851393  -2.93111011 
| 33> H   -0.84452992   1.60278129  -1.95617632 
| 34> H    0.21278652   0.00547938  -3.17746459 
| 35> *
| 36> 
| 37>                          ****END OF INPUT****
================================================================================

                     *******************************
                     * Energy+Gradient Calculation *
                     *******************************

---------------------------------
CARTESIAN COORDINATES (ANGSTROEM)
---------------------------------
  Sc     1.644300   -1.247641   -1.532958
  C      0.411754   -0.617162    0.218218
  N     -0.477083   -1.358593    0.922477
  C     -0.802823   -0.766849    2.115975
  C     -0.151016    0.411663    2.153644
  N      0.568076    0.500816    0.984157
  C      1.431638    1.631566    0.601714
  H      1.534802    2.305683    1.452498
  H      0.991275    2.168119   -0.224709
  H      2.429709    1.266632    0.350014
  C     -0.989387   -2.671192    0.555598
  H     -0.591187   -2.971015   -0.412707
  H     -2.073147   -2.643313    0.483407
  H     -0.697220   -3.415849    1.297994
  H     -1.448516   -1.213781    2.842911
  H     -0.134677    1.181818    2.894003
  C     -0.350633    1.619042   -2.887277
  H     -0.983976    1.655684   -3.752350
  H      0.321359    2.558514   -2.931110
  H     -0.844530    1.602781   -1.956176
  H      0.212787    0.005479   -3.177465

----------------------------
CARTESIAN COORDINATES (A.U.)
----------------------------
  NO LB      ZA    FRAG     MASS         X           Y           Z
   0 Sc   21.0000    0    44.960    3.107277   -2.357700   -2.896871
   1 C     6.0000    0    12.011    0.778101   -1.166267    0.412371
   2 N     7.0000    0    14.007   -0.901556   -2.567368    1.743228
   3 C     6.0000    0    12.011   -1.517116   -1.449135    3.998613
   4 C     6.0000    0    12.011   -0.285380    0.777931    4.069797
   5 N     7.0000    0    14.007    1.073508    0.946405    1.859788
   6 C     6.0000    0    12.011    2.705403    3.083212    1.137075
   7 H     1.0000    0     1.008    2.900356    4.357110    2.744823
   8 H     1.0000    0     1.008    1.873238    4.097152   -0.424638
   9 H     1.0000    0     1.008    4.591485    2.393588    0.661431
  10 C     6.0000    0    12.011   -1.869670   -5.047822    1.049929
  11 H     1.0000    0     1.008   -1.117181   -5.614404   -0.779903
  12 H     1.0000    0     1.008   -3.917679   -4.995138    0.913508
  13 H     1.0000    0     1.008   -1.317555   -6.455019    2.452852
  14 H     1.0000    0     1.008   -2.737298   -2.293714    5.372323
  15 H     1.0000    0     1.008   -0.254503    2.233312    5.468873
  16 C     6.0000    0    12.011   -0.662601    3.059546   -5.456163
  17 H     1.0000    0     1.008   -1.859444    3.128790   -7.090913
  18 H     1.0000    0     1.008    0.607280    4.834891   -5.538995
  19 H     1.0000    0     1.008   -1.595930    3.028818   -3.696638
  20 H     1.0000    0     1.008    0.402108    0.010355   -6.004538

--------------------------------
INTERNAL COORDINATES (ANGSTROEM)
--------------------------------
 Sc     0   0   0     0.000000000000     0.00000000     0.00000000
 C      1   0   0     2.232328962046     0.00000000     0.00000000
 N      2   1   0     1.354891198670   127.98199629     0.00000000
 C      3   2   1     1.371388205375   111.84297151   165.01736381
 C      4   3   2     1.347279814390   106.67004597     2.63954953
 N      2   1   3     1.364175818276   127.49116243   165.82616204
 C      6   2   1     1.473294255005   123.39471676    12.98990987
 H      7   6   2     1.090371212450   109.11190205   190.60852918
 H      7   6   2     1.079251811563   109.94847673    70.88116699
 H      7   6   2     1.092096885076   109.81839106   308.14530090
 C      3   2   1     1.456012571292   126.38260672   349.07111380
 H     11   3   2     1.089069444726   110.09450210   357.19299629
 H     11   3   2     1.086519394564   110.15558499   237.92051283
 H     11   3   2     1.091341254065   110.45796438   117.13526762
 H      4   3   2     1.070094531203   123.66309034   183.32292969
 H      5   4   3     1.068427070744   131.09486244   179.34931263
 C      9   7   6     3.031744353611   139.73419092   315.15952547
 H     17   9   7     1.072760725369   164.43634351   143.99446778
 H     17   9   7     1.155898861647    68.20934960   217.02354127
 H     17   9   7     1.054109697981    55.55846779    83.39472194
 H     17   9   7     1.733561459457    99.88833752   339.96762048

---------------------------
INTERNAL COORDINATES (A.U.)
---------------------------
 Sc     0   0   0     0.000000000000     0.00000000     0.00000000
 C      1   0   0     4.218490379088     0.00000000     0.00000000
 N      2   1   0     2.560373306747   127.98199629     0.00000000
 C      3   2   1     2.591548131448   111.84297151   165.01736381
 C      4   3   2     2.545989874958   106.67004597     2.63954953
 N      2   1   3     2.577918695060   127.49116243   165.82616204
 C      6   2   1     2.784122656638   123.39471676    12.98990987
 H      7   6   2     2.060502975842   109.11190205   190.60852918
 H      7   6   2     2.039490353393   109.94847673    70.88116699
 H      7   6   2     2.063764024503   109.81839106   308.14530090
 C      3   2   1     2.751465007289   126.38260672   349.07111380
 H     11   3   2     2.058042991354   110.09450210   357.19299629
 H     11   3   2     2.053224094921   110.15558499   237.92051283
 H     11   3   2     2.062336088834   110.45796438   117.13526762
 H      4   3   2     2.022185601381   123.66309034   183.32292969
 H      5   4   3     2.019034557775   131.09486244   179.34931263
 C      9   7   6     5.729166536387   139.73419092   315.15952547
 H     17   9   7     2.027223978174   164.43634351   143.99446778
 H     17   9   7     2.184332287025    68.20934960   217.02354127
 H     17   9   7     1.991978644295    55.55846779    83.39472194
 H     17   9   7     3.275956394694    99.88833752   339.96762048

---------------------
BASIS SET INFORMATION
---------------------
There are 4 groups of distinct atoms

 Group   1 Type Sc  : 14s9p5d1f contracted to 5s3p2d1f pattern {63311/531/41/1}
 Group   2 Type C   : 8s4p1d contracted to 4s2p1d pattern {5111/31/1}
 Group   3 Type N   : 8s4p1d contracted to 4s2p1d pattern {5111/31/1}
 Group   4 Type H   : 4s contracted to 2s pattern {31}

Atom   0Sc   basis set group =>   1
Atom   1C    basis set group =>   2
Atom   2N    basis set group =>   3
Atom   3C    basis set group =>   2
Atom   4C    basis set group =>   2
Atom   5N    basis set group =>   3
Atom   6C    basis set group =>   2
Atom   7H    basis set group =>   4
Atom   8H    basis set group =>   4
Atom   9H    basis set group =>   4
Atom  10C    basis set group =>   2
Atom  11H    basis set group =>   4
Atom  12H    basis set group =>   4
Atom  13H    basis set group =>   4
Atom  14H    basis set group =>   4
Atom  15H    basis set group =>   4
Atom  16C    basis set group =>   2
Atom  17H    basis set group =>   4
Atom  18H    basis set group =>   4
Atom  19H    basis set group =>   4
Atom  20H    basis set group =>   4
---------------------------------
AUXILIARY/J BASIS SET INFORMATION
---------------------------------
There are 4 groups of distinct atoms

 Group   1 Type Sc  : 19s5p5d3f3g contracted to 8s5p5d2f3g pattern {121111111/11111/11111/21/111}
 Group   2 Type C   : 12s5p4d2f1g contracted to 6s4p3d1f1g pattern {711111/2111/211/2/1}
 Group   3 Type N   : 12s5p4d2f1g contracted to 6s4p3d1f1g pattern {711111/2111/211/2/1}
 Group   4 Type H   : 5s2p1d contracted to 3s1p1d pattern {311/2/1}

Atom   0Sc   basis set group =>   1
Atom   1C    basis set group =>   2
Atom   2N    basis set group =>   3
Atom   3C    basis set group =>   2
Atom   4C    basis set group =>   2
Atom   5N    basis set group =>   3
Atom   6C    basis set group =>   2
Atom   7H    basis set group =>   4
Atom   8H    basis set group =>   4
Atom   9H    basis set group =>   4
Atom  10C    basis set group =>   2
Atom  11H    basis set group =>   4
Atom  12H    basis set group =>   4
Atom  13H    basis set group =>   4
Atom  14H    basis set group =>   4
Atom  15H    basis set group =>   4
Atom  16C    basis set group =>   2
Atom  17H    basis set group =>   4
Atom  18H    basis set group =>   4
Atom  19H    basis set group =>   4
Atom  20H    basis set group =>   4
------------------------------------------------------------------------------
                           ORCA GTO INTEGRAL CALCULATION
                           -- RI-GTO INTEGRALS CHOSEN --
------------------------------------------------------------------------------
------------------------------------------------------------------------------
                   ___                                                        
                  /   \      - P O W E R E D   B Y -                         
                 /     \                                                     
                 |  |  |   _    _      __       _____    __    __             
                 |  |  |  | |  | |    /  \     |  _  \  |  |  /  |          
                  \  \/   | |  | |   /    \    | | | |  |  | /  /          
                 / \  \   | |__| |  /  /\  \   | |_| |  |  |/  /          
                |  |  |   |  __  | /  /__\  \  |    /   |      \           
                |  |  |   | |  | | |   __   |  |    \   |  |\   \          
                \     /   | |  | | |  |  |  |  | |\  \  |  | \   \       
                 \___/    |_|  |_| |__|  |__|  |_| \__\ |__|  \__/        
                                                                              
                      - O R C A' S   B I G   F R I E N D -                    
                                      &                                       
                       - I N T E G R A L  F E E D E R -                       
                                                                              
 v1 FN, 2020, v2 2021                                                         
------------------------------------------------------------------------------


Reading SHARK input file 5_2_orca.SHARKINP.tmp ... ok
----------------------
SHARK INTEGRAL PACKAGE
----------------------

Number of atoms                             ...     21
Number of basis functions                   ...    175
Number of shells                            ...     91
Maximum angular momentum                    ...      3
Integral batch strategy                     ... SHARK/LIBINT Hybrid
RI-J (if used) integral strategy            ... SPLIT-RIJ (Revised 2003 algorithm where possible)
Printlevel                                  ...      1
Contraction scheme used                     ... SEGMENTED contraction
Coulomb Range Separation                    ... NOT USED
Exchange Range Separation                   ... NOT USED
Finite Nucleus Model                        ... NOT USED
Auxiliary Coulomb fitting basis             ... AVAILABLE
   # of basis functions in Aux-J            ...    613
   # of shells in Aux-J                     ...    203
   Maximum angular momentum in Aux-J        ...      4
Auxiliary J/K fitting basis                 ... NOT available
Auxiliary Correlation fitting basis         ... NOT available
Auxiliary 'external' fitting basis          ... NOT available
Integral threshold                          ...     2.500000e-11
Primitive cut-off                           ...     2.500000e-12
Primitive pair pre-selection threshold      ...     2.500000e-12

Calculating pre-screening integrals         ... done (  0.1 sec) Dimension = 91
Organizing shell pair data                  ... done (  0.0 sec)
Shell pair information
Total number of shell pairs                 ...      4186
Shell pairs after pre-screening             ...      3617
Total number of primitive shell pairs       ...     16651
Primitive shell pairs kept                  ...      9628
          la=0 lb=0:   1524 shell pairs
          la=1 lb=0:   1068 shell pairs
          la=1 lb=1:    186 shell pairs
          la=2 lb=0:    517 shell pairs
          la=2 lb=1:    180 shell pairs
          la=2 lb=2:     51 shell pairs
          la=3 lb=0:     61 shell pairs
          la=3 lb=1:     19 shell pairs
          la=3 lb=2:     10 shell pairs
          la=3 lb=3:      1 shell pairs

Calculating one electron integrals          ... done (  0.0 sec)
Calculating RI/J V-Matrix + Cholesky decomp.... done (  0.0 sec)
Calculating Nuclear repulsion               ... done (  0.0 sec) ENN=    563.113769070863 Eh

SHARK setup successfully completed in   0.4 seconds

Maximum memory used throughout the entire GTOINT-calculation: 32.7 MB
-------------------------------------------------------------------------------
                                 ORCA SCF
-------------------------------------------------------------------------------

------------
SCF SETTINGS
------------
Hamiltonian:
 Density Functional     Method          .... DFT(GTOs)
 Exchange Functional    Exchange        .... PBE
   PBE kappa parameter   XKappa         ....  1.024500
   PBE mue parameter    XMuePBE         ....  0.123457
 Correlation Functional Correlation     .... PBE
   PBE beta parameter  CBetaPBE         ....  0.030000
 LDA part of GGA corr.  LDAOpt          .... PW91-LDA
 Gradients option       PostSCFGGA      .... off
 Hybrid DFT is turned on
   Fraction HF Exchange ScalHFX         ....  0.420000
   Scaling of DF-GGA-X  ScalDFX         ....  0.580000
   Scaling of DF-GGA-C  ScalDFC         ....  1.000000
   Scaling of DF-LDA-C  ScalLDAC        ....  1.000000
   Perturbative correction              ....  0.000000
   Density functional embedding theory  .... OFF
 RI-approximation to the Coulomb term is turned on
   Number of AuxJ basis functions       .... 613
   RIJ-ON(X) (HFX calculated with O(N)) .... on
   Number of AuxJ basis functions       .... 613
   RIJ-COSX (HFX calculated with COS-X)).... on


General Settings:
 Integral files         IntName         .... 5_2_orca
 Hartree-Fock type      HFTyp           .... RHF
 Total Charge           Charge          ....    1
 Multiplicity           Mult            ....    1
 Number of Electrons    NEL             ....   82
 Basis Dimension        Dim             ....  175
 Nuclear Repulsion      ENuc            ....    563.1137690709 Eh

Convergence Acceleration:
 DIIS                   CNVDIIS         .... on
   Start iteration      DIISMaxIt       ....    12
   Startup error        DIISStart       ....  0.200000
   # of expansion vecs  DIISMaxEq       ....     5
   Bias factor          DIISBfac        ....   1.050
   Max. coefficient     DIISMaxC        ....  10.000
 Trust-Rad. Augm. Hess. CNVTRAH         .... auto
   Auto Start mean grad. ratio tolernc. ....  1.125000
   Auto Start start iteration           ....    20
   Auto Start num. interpolation iter.  ....    10
   Max. Number of Micro iterations      ....    16
   Max. Number of Macro iterations      .... Maxiter - #DIIS iter
   Number of Davidson start vectors     ....     2
   Converg. threshold I  (grad. norm)   ....   1.000e-05
   Converg. threshold II (energy diff.) ....   1.000e-08
   Grad. Scal. Fac. for Micro threshold ....   0.100
   Minimum threshold for Micro iter.    ....   0.010
   NR start threshold (gradient norm)   ....   0.001
   Initial trust radius                 ....   0.400
   Minimum AH scaling param. (alpha)    ....   1.000
   Maximum AH scaling param. (alpha)    .... 1000.000
   Orbital update algorithm             .... Taylor
   White noise on init. David. guess    .... on
   Maximum white noise                  ....   0.010
   Quad. conv. algorithm                .... NR
   COSX micro iterations for RIJONX calc.... off
 SOSCF                  CNVSOSCF        .... off
 Level Shifting         CNVShift        .... on
   Level shift para.    LevelShift      ....    0.2500
   Turn off err/grad.   ShiftErr        ....    0.0010
 Zerner damping         CNVZerner       .... off
 Static damping         CNVDamp         .... on
   Fraction old density DampFac         ....    0.7000
   Max. Damping (<1)    DampMax         ....    0.9800
   Min. Damping (>=0)   DampMin         ....    0.0000
   Turn off err/grad.   DampErr         ....    0.1000
 Fernandez-Rico         CNVRico         .... off

SCF Procedure:
 Maximum # iterations   MaxIter         ....   250
 SCF integral mode      SCFMode         .... Direct
   Integral package                     .... SHARK and LIBINT hybrid scheme
 Reset frequency        DirectResetFreq ....    20
 Integral Threshold     Thresh          ....  2.500e-11 Eh
 Primitive CutOff       TCut            ....  2.500e-12 Eh

Convergence Tolerance:
 Convergence Check Mode ConvCheckMode   .... Total+1el-Energy
 Convergence forced     ConvForced      .... 0
 Energy Change          TolE            ....  1.000e-08 Eh
 1-El. energy change                    ....  1.000e-05 Eh
 DIIS Error             TolErr          ....  5.000e-07


Diagonalization of the overlap matrix:
Smallest eigenvalue                        ... 1.430e-03
Time for diagonalization                   ...    0.010 sec
Threshold for overlap eigenvalues          ... 1.000e-08
Number of eigenvalues below threshold      ... 0
Time for construction of square roots      ...    0.002 sec
Total time needed                          ...    0.013 sec

--------------------------------
INITIAL GUESS: MINIMAL BASIS EHT
--------------------------------
The minimal basis has 70 functions
EHT matrix was diagonalized
Basis set overlap was calculated now projecting the orbitals
Using GuessMode=FMatrix for the initial guess
C*T matrix was formed
Effective Fockian was calculated
Effective Fockian was diagonalized
Initial density was built
                      ------------------
                      INITIAL GUESS DONE
                      ------------------
-------------------
DFT GRID GENERATION
-------------------

General Integration Accuracy     IntAcc      ... 4.159
Radial Grid Type                 RadialGrid  ... OptM3 with GC (2021)
Angular Grid (max. ang.)         AngularGrid ... 3 (Lebedev-194)
Angular grid pruning method      GridPruning ... 4 (adaptive)
Weight generation scheme         WeightScheme... Becke
Basis function cutoff            BFCut       ... 1.0000e-11
Integration weight cutoff        WCut        ... 1.0000e-14
Angular grids for H and He will be reduced by one unit
Partially contracted basis set               ... off
Rotationally invariant grid construction     ... off

Total number of grid points                  ...    48323
Total number of batches                      ...      766
Average number of points per batch           ...       63
Average number of grid points per atom       ...     2301
Time for grid setup =    0.446 sec

--------------------
COSX GRID GENERATION
--------------------

GRIDX 1
-------
General Integration Accuracy     IntAcc      ... 3.816
Radial Grid Type                 RadialGrid  ... OptM3 with GC (2021)
Angular Grid (max. ang.)         AngularGrid ... 1 (Lebedev-50)
Angular grid pruning method      GridPruning ... 4 (adaptive)
Weight generation scheme         WeightScheme... Becke
Basis function cutoff            BFCut       ... 1.0000e-11
Integration weight cutoff        WCut        ... 1.0000e-14
Angular grids for H and He will be reduced by one unit
Partially contracted basis set               ... on
Rotationally invariant grid construction     ... off

Total number of grid points                  ...    12305
Total number of batches                      ...      202
Average number of points per batch           ...       60
Average number of grid points per atom       ...      586
UseSFitting                                  ... on

GRIDX 2
-------
General Integration Accuracy     IntAcc      ... 4.020
Radial Grid Type                 RadialGrid  ... OptM3 with GC (2021)
Angular Grid (max. ang.)         AngularGrid ... 2 (Lebedev-110)
Angular grid pruning method      GridPruning ... 4 (adaptive)
Weight generation scheme         WeightScheme... Becke
Basis function cutoff            BFCut       ... 1.0000e-11
Integration weight cutoff        WCut        ... 1.0000e-14
Angular grids for H and He will be reduced by one unit
Partially contracted basis set               ... on
Rotationally invariant grid construction     ... off

Total number of grid points                  ...    26030
Total number of batches                      ...      418
Average number of points per batch           ...       62
Average number of grid points per atom       ...     1240
UseSFitting                                  ... on

GRIDX 3
-------
General Integration Accuracy     IntAcc      ... 4.338
Radial Grid Type                 RadialGrid  ... OptM3 with GC (2021)
Angular Grid (max. ang.)         AngularGrid ... 3 (Lebedev-194)
Angular grid pruning method      GridPruning ... 4 (adaptive)
Weight generation scheme         WeightScheme... Becke
Basis function cutoff            BFCut       ... 1.0000e-11
Integration weight cutoff        WCut        ... 1.0000e-14
Angular grids for H and He will be reduced by one unit
Partially contracted basis set               ... on
Rotationally invariant grid construction     ... off

Total number of grid points                  ...    57043
Total number of batches                      ...      902
Average number of points per batch           ...       63
Average number of grid points per atom       ...     2716
UseSFitting                                  ... on

Time for X-Grid setup             =    1.310 sec

--------------
SCF ITERATIONS
--------------
ITER       Energy         Delta-E        Max-DP      RMS-DP      [F,P]     Damp
               ***  Starting incremental Fock matrix formation  ***
  0  -1102.7358749888   0.000000000000 0.55938618  0.00785411  0.4067153 0.7000
  1  -1101.8708118116   0.865063177232 0.27494924  0.00498818  0.2895558 0.7000
  2  -1102.8738199056  -1.003008093995 0.18804942  0.00328028  0.2055682 0.7000
                               ***Turning on DIIS***
  3  -1103.3119353251  -0.438115419511 0.08141798  0.00217786  0.1453328 0.7000
  4  -1103.5618039251  -0.249868599992 0.13883273  0.00277623  0.1047982 0.7000
  5  -1103.7795899010  -0.217785975899 0.37432411  0.00698271  0.0714614 0.0000
  6  -1104.3204028152  -0.540812914268 0.04668895  0.00126836  0.0460750 0.0000
  7  -1104.3425127575  -0.022109942298 0.04154008  0.00073256  0.0186950 0.0000
  8  -1104.3475123004  -0.004999542830 0.04158189  0.00056625  0.0110480 0.0000
  9  -1104.3502527294  -0.002740428995 0.04265571  0.00049317  0.0080527 0.0000
 10  -1104.3520191258  -0.001766396410 0.04220436  0.00044551  0.0066285 0.0000
 11  -1104.3533332420  -0.001314116236 0.04118952  0.00041538  0.0060156 0.0000
 12  -1104.3544466642  -0.001113422219 0.04172612  0.00041808  0.0060228 0.0000
 13  -1104.3555352865  -0.001088622302 0.04188392  0.00042407  0.0057645 0.0000
 14  -1104.3566161945  -0.001080907987 0.04326118  0.00044906  0.0056740 0.0000
 15  -1104.3577443624  -0.001128167933 0.03917756  0.00042590  0.0057396 0.0000
 16  -1104.3588220589  -0.001077696416 0.04587011  0.00052310  0.0054551 0.0000
 17  -1104.3601065432  -0.001284484293 0.02309037  0.00030028  0.0059408 0.0000
 18  -1104.3608841217  -0.000777578598 0.06434028  0.00084382  0.0047340 0.0000
 19  -1104.3627445330  -0.001860411265 0.01043258  0.00019427  0.0076864 0.0000
               *** Restarting incremental Fock matrix formation ***
                                   *** Resetting DIIS ***

 WARNING: the maximum gradient error descreased on average only by a factor   1.0
          during the last 20 iterations

                      *** Initiating the TRAH-SCF procedure ***


TRAH GRIDX
----------

General Integration Accuracy     IntAcc      ... 3.067
Radial Grid Type                 RadialGrid  ... OptM3 with GC (2021)
Angular Grid (max. ang.)         AngularGrid ... 1 (Lebedev-50)
Angular grid pruning method      GridPruning ... 4 (adaptive)
Weight generation scheme         WeightScheme... Becke
Basis function cutoff            BFCut       ... 1.0000e-11
Integration weight cutoff        WCut        ... 1.0000e-14
Angular grids for H and He will be reduced by one unit
Partially contracted basis set               ... on
Rotationally invariant grid construction     ... off

Total number of grid points                  ...     6556
Total number of batches                      ...      116
Average number of points per batch           ...       56
Average number of grid points per atom       ...      312


TRAH GRID
---------

General Integration Accuracy     IntAcc      ... 3.467
Radial Grid Type                 RadialGrid  ... OptM3 with GC (2021)
Angular Grid (max. ang.)         AngularGrid ... 1 (Lebedev-50)
Angular grid pruning method      GridPruning ... 4 (adaptive)
Weight generation scheme         WeightScheme... Becke
Basis function cutoff            BFCut       ... 1.0000e-11
Integration weight cutoff        WCut        ... 1.0000e-14
Angular grids for H and He will be reduced by one unit
Partially contracted basis set               ... off
Rotationally invariant grid construction     ... off

Total number of grid points                  ...    16373
Total number of batches                      ...      267
Average number of points per batch           ...       61
Average number of grid points per atom       ...      780

 --------------------------------------------------------------------------------------------
   Iter.        energy            ||Error||_2        Shift      TRadius  Mac/Mic        Rej.
 --------------------------------------------------------------------------------------------
    0      -1104.363496167563     2.933527e-02                     0.400 (TRAH MAcro)   No
    0     dE    -4.975766e-04     1.547927e-01    -9.9401e-04      0.034 (TRAH MIcro)
    0     dE    -5.642202e-03     2.032339e-01    -9.9689e-03      0.363 (TRAH MIcro)
    0     dE    -7.354231e-03     4.532933e-02    -2.2938e-02      0.400 (TRAH MIcro)
    0     dE    -7.549672e-03     2.320771e-02    -2.5292e-02      0.400 (TRAH MIcro)
    0     dE    -7.614600e-03     1.781302e-02    -2.6257e-02      0.400 (TRAH MIcro)
    0     dE    -7.672177e-03     1.891408e-02    -2.7285e-02      0.400 (TRAH MIcro)
    0     dE    -7.731317e-03     1.304483e-02    -2.8625e-02      0.400 (TRAH MIcro)
    0     dE    -7.749615e-03     7.283921e-03    -2.9113e-02      0.400 (TRAH MIcro)
    0     dE    -7.756368e-03     4.639475e-03    -2.9316e-02      0.400 (TRAH MIcro)
    0     dE    -7.761155e-03     5.205108e-03    -2.9446e-02      0.400 (TRAH MIcro)
    0     dE    -7.765971e-03     3.812385e-03    -2.9600e-02      0.400 (TRAH MIcro)
    0     dE    -7.767870e-03     2.636415e-03    -2.9675e-02      0.400 (TRAH MIcro)
    1      -1104.368179848320     1.019363e-01                     0.400 (TRAH MAcro)   No
    1     dE    -7.282584e-04     2.010986e-01    -1.4562e-03      0.015 (TRAH MIcro)
    1     dE    -1.423569e-03     2.935859e-02    -2.8422e-03      0.042 (TRAH MIcro)
    1     dE    -1.557677e-03     2.425819e-02    -3.1065e-03      0.053 (TRAH MIcro)
    1     dE    -1.591106e-03     1.214102e-02    -3.1713e-03      0.059 (TRAH MIcro)
    1     dE    -1.610149e-03     1.018831e-02    -3.2072e-03      0.064 (TRAH MIcro)
    1     dE    -1.618990e-03     9.286244e-03    -3.2235e-03      0.067 (TRAH MIcro)
    2      -1104.369795689105     9.901145e-03                     0.480 (TRAH MAcro)   No
    2     dE    -2.561619e-07     1.378178e-02    -5.1233e-07      0.000 (TRAH MIcro)
    2     dE    -1.253698e-05     1.114122e-02    -2.5073e-05      0.005 (TRAH MIcro)
    2     dE    -2.873091e-05     1.056625e-02    -5.7448e-05      0.016 (TRAH MIcro)
    2     dE    -4.312800e-05     8.446099e-03    -8.6186e-05      0.028 (TRAH MIcro)
    2     dE    -5.511682e-05     7.856855e-03    -1.1005e-04      0.041 (TRAH MIcro)
    2     dE    -5.943762e-05     4.214870e-03    -1.1863e-04      0.045 (TRAH MIcro)
    2     dE    -6.150527e-05     2.138379e-03    -1.2273e-04      0.048 (TRAH MIcro)
    2     dE    -6.188294e-05     1.318795e-03    -1.2348e-04      0.048 (TRAH MIcro)
    2     dE    -6.221276e-05     1.772790e-03    -1.2413e-04      0.049 (TRAH MIcro)
    2     dE    -6.262415e-05     1.588188e-03    -1.2495e-04      0.049 (TRAH MIcro)
    2     dE    -6.281655e-05     6.844144e-04    -1.2533e-04      0.049 (TRAH MIcro)
    3      -1104.369858399838     1.774881e-03                     0.576 (TRAH MAcro)   No
    3     dE    -1.126730e-07     8.637873e-03    -2.2535e-07      0.000 (TRAH MIcro)
    3     dE    -4.175462e-07     6.499344e-04    -8.3509e-07      0.001 (TRAH MIcro)
    3     dE    -4.624055e-07     6.369080e-04    -9.2481e-07      0.001 (TRAH MIcro)
    3     dE    -4.885024e-07     5.046966e-04    -9.7700e-07      0.001 (TRAH MIcro)
    3     dE    -5.169809e-07     6.712941e-04    -1.0340e-06      0.002 (TRAH MIcro)
    3     dE    -5.286453e-07     4.641935e-04    -1.0573e-06      0.002 (TRAH MIcro)
    3     dE    -5.376962e-07     2.079774e-04    -1.0754e-06      0.002 (TRAH MIcro)
    3     dE    -5.413958e-07     1.791010e-04    -1.0828e-06      0.002 (TRAH MIcro)
    3     dE    -5.440868e-07     1.291520e-04    -1.0882e-06      0.002 (TRAH MIcro)
    4      -1104.369858922206     1.292240e-04                           (NR   MAcro)
    4     dE    -1.149777e-09     5.851816e-05                           (NR   MIcro)
    4     dE    -2.200111e-09     8.952879e-05                           (NR   MIcro)
    4     dE    -3.015502e-09     6.453007e-05                           (NR   MIcro)
    4     dE    -3.427864e-09     4.146482e-05                           (NR   MIcro)
    4     dE    -3.757768e-09     5.212920e-05                           (NR   MIcro)
    4     dE    -3.920469e-09     2.240322e-05                           (NR   MIcro)
    4     dE    -4.035102e-09     3.401182e-05                           (NR   MIcro)
    4     dE    -4.135449e-09     2.714951e-05                           (NR   MIcro)
    4     dE    -4.221463e-09     1.835373e-05                           (NR   MIcro)
    4     dE    -4.236576e-09     9.493847e-06                           (NR   MIcro)
    4     dE    -4.238230e-09     1.643688e-06                           (NR   MIcro)
    4     dE    -4.238568e-09     2.135230e-06                           (NR   MIcro)
    4     dE    -4.238886e-09     1.952745e-06                           (NR   MIcro)
    4     dE    -4.239123e-09     9.242130e-07                           (NR   MIcro)
    5      -1104.369858921467     1.036053e-06                           (NR   MAcro)

               *****************************************************
               *                     SUCCESS                       *
               *           SCF CONVERGED AFTER  78 CYCLES          *
               *****************************************************

Old exchange energy                            =    -36.193647186 Eh
New exchange energy                            =    -36.193668493 Eh
Exchange energy change after final integration =     -0.000021307 Eh
Total energy after final integration           =  -1104.369880229 Eh
Final COS-X integration done in                =    11.312 sec

----------------
TOTAL SCF ENERGY
----------------

Total Energy       :        -1104.36988023 Eh          -30051.43223 eV

Components:
Nuclear Repulsion  :          563.11376907 Eh           15323.10467 eV
Electronic Energy  :        -1667.48364930 Eh          -45374.53689 eV
One Electron Energy:        -2610.30999478 Eh          -71030.14606 eV
Two Electron Energy:          942.82634548 Eh           25655.60917 eV
Max COSX asymmetry :            0.00000676 Eh               0.00018 eV

Virial components:
Potential Energy   :        -2204.94658678 Eh          -59999.64695 eV
Kinetic Energy     :         1100.57670655 Eh           29948.21472 eV
Virial Ratio       :            2.00344653


DFT components:
N(Alpha)           :       40.999774342871 electrons
N(Beta)            :       40.999774342871 electrons
N(Total)           :       81.999548685742 electrons
E(X)               :      -48.264237530153 Eh       
E(C)               :       -3.742100815390 Eh       
E(XC)              :      -52.006338345544 Eh       
DFET-embed. en.    :        0.000000000000 Eh       

---------------
SCF CONVERGENCE
---------------

  Last Energy change         ...    7.3965e-10  Tolerance :   1.0000e-08
  Last Orbital Gradient      ...    1.0361e-06  Tolerance :   1.0000e-05
  Last Orbital Rotation      ...    3.6075e-04

             **** THE GBW FILE WAS UPDATED (5_2_orca.gbw) ****
             **** DENSITY 5_2_orca.scfp WAS UPDATED ****
             **** ENERGY FILE WAS UPDATED (5_2_orca.en.tmp) ****
             **** THE GBW FILE WAS UPDATED (5_2_orca.gbw) ****
             **** DENSITY 5_2_orca.scfp WAS UPDATED ****
----------------
ORBITAL ENERGIES
----------------

  NO   OCC          E(Eh)            E(eV) 
   0   2.0000    -162.899201     -4432.7126 
   1   2.0000     -18.208749      -495.4852 
   2   2.0000     -15.050102      -409.5341 
   3   2.0000     -15.046918      -409.4475 
   4   2.0000     -15.034001      -409.0960 
   5   2.0000     -14.864575      -404.4857 
   6   2.0000     -14.863850      -404.4659 
   7   2.0000     -10.647878      -289.7435 
   8   2.0000     -10.629313      -289.2383 
   9   2.0000     -10.625988      -289.1478 
  10   2.0000     -10.624620      -289.1106 
  11   2.0000     -10.618522      -288.9447 
  12   2.0000     -10.600024      -288.4413 
  13   2.0000      -2.418127       -65.8006 
  14   2.0000      -1.567011       -42.6405 
  15   2.0000      -1.558210       -42.4011 
  16   2.0000      -1.550350       -42.1872 
  17   2.0000      -1.305856       -35.5341 
  18   2.0000      -1.182751       -32.1843 
  19   2.0000      -1.023804       -27.8591 
  20   2.0000      -0.979720       -26.6595 
  21   2.0000      -0.925327       -25.1794 
  22   2.0000      -0.887502       -24.1502 
  23   2.0000      -0.840804       -22.8794 
  24   2.0000      -0.804463       -21.8905 
  25   2.0000      -0.750909       -20.4333 
  26   2.0000      -0.701025       -19.0759 
  27   2.0000      -0.673919       -18.3383 
  28   2.0000      -0.657464       -17.8905 
  29   2.0000      -0.654535       -17.8108 
  30   2.0000      -0.650403       -17.6984 
  31   2.0000      -0.604763       -16.4564 
  32   2.0000      -0.601133       -16.3577 
  33   2.0000      -0.597397       -16.2560 
  34   2.0000      -0.592424       -16.1207 
  35   2.0000      -0.570915       -15.5354 
  36   2.0000      -0.525788       -14.3074 
  37   2.0000      -0.493234       -13.4216 
  38   2.0000      -0.486467       -13.2374 
  39   2.0000      -0.436986       -11.8910 
  40   2.0000      -0.318250        -8.6600 
  41   0.0000      -0.188426        -5.1273 
  42   0.0000      -0.184988        -5.0338 
  43   0.0000      -0.176755        -4.8098 
  44   0.0000      -0.167372        -4.5544 
  45   0.0000      -0.158996        -4.3265 
  46   0.0000      -0.150826        -4.1042 
  47   0.0000      -0.122131        -3.3233 
  48   0.0000      -0.087315        -2.3760 
  49   0.0000      -0.082685        -2.2500 
  50   0.0000      -0.060968        -1.6590 
  51   0.0000      -0.009146        -0.2489 
  52   0.0000      -0.004377        -0.1191 
  53   0.0000       0.023509         0.6397 
  54   0.0000       0.037420         1.0183 
  55   0.0000       0.042377         1.1531 
  56   0.0000       0.056306         1.5322 
  57   0.0000       0.060313         1.6412 
  58   0.0000       0.063792         1.7359 
  59   0.0000       0.075527         2.0552 
  60   0.0000       0.081006         2.2043 
  61   0.0000       0.086328         2.3491 
  62   0.0000       0.089503         2.4355 
  63   0.0000       0.094318         2.5665 
  64   0.0000       0.103758         2.8234 
  65   0.0000       0.130176         3.5423 
  66   0.0000       0.141001         3.8368 
  67   0.0000       0.163156         4.4397 
  68   0.0000       0.206966         5.6318 
  69   0.0000       0.223427         6.0798 
  70   0.0000       0.283494         7.7143 
  71   0.0000       0.287642         7.8271 
  72   0.0000       0.324511         8.8304 
  73   0.0000       0.334677         9.1070 
  74   0.0000       0.349294         9.5048 
  75   0.0000       0.358479         9.7547 
  76   0.0000       0.369142        10.0449 
  77   0.0000       0.378301        10.2941 
  78   0.0000       0.396976        10.8023 
  79   0.0000       0.403748        10.9865 
  80   0.0000       0.416704        11.3391 
  81   0.0000       0.432598        11.7716 
  82   0.0000       0.443617        12.0714 
  83   0.0000       0.455910        12.4059 
  84   0.0000       0.475343        12.9347 
  85   0.0000       0.493676        13.4336 
  86   0.0000       0.505909        13.7665 
  87   0.0000       0.520280        14.1575 
  88   0.0000       0.536962        14.6115 
  89   0.0000       0.552856        15.0440 
  90   0.0000       0.559703        15.2303 
  91   0.0000       0.580781        15.8038 
  92   0.0000       0.643161        17.5013 
  93   0.0000       0.669715        18.2239 
  94   0.0000       0.677350        18.4316 
  95   0.0000       0.761283        20.7156 
  96   0.0000       0.772872        21.0309 
  97   0.0000       0.779612        21.2143 
  98   0.0000       0.796776        21.6814 
  99   0.0000       0.800172        21.7738 
 100   0.0000       0.822446        22.3799 
 101   0.0000       0.835508        22.7353 
 102   0.0000       0.844334        22.9755 
 103   0.0000       0.849223        23.1085 
 104   0.0000       0.861941        23.4546 
 105   0.0000       0.872171        23.7330 
 106   0.0000       0.884663        24.0729 
 107   0.0000       0.890580        24.2339 
 108   0.0000       0.904075        24.6011 
 109   0.0000       0.922564        25.1042 
 110   0.0000       0.932630        25.3781 
 111   0.0000       0.940010        25.5790 
 112   0.0000       0.954154        25.9638 
 113   0.0000       0.967142        26.3173 
 114   0.0000       0.975685        26.5497 
 115   0.0000       0.986795        26.8521 
 116   0.0000       0.998805        27.1789 
 117   0.0000       1.013743        27.5854 
 118   0.0000       1.034149        28.1406 
 119   0.0000       1.069729        29.1088 
 120   0.0000       1.095957        29.8225 
 121   0.0000       1.114754        30.3340 
 122   0.0000       1.167820        31.7780 
 123   0.0000       1.214392        33.0453 
 124   0.0000       1.241093        33.7719 
 125   0.0000       1.270028        34.5592 
 126   0.0000       1.303644        35.4740 
 127   0.0000       1.333091        36.2753 
 128   0.0000       1.463715        39.8297 
 129   0.0000       1.495388        40.6916 
 130   0.0000       1.514311        41.2065 
 131   0.0000       1.574043        42.8319 
 132   0.0000       1.597459        43.4691 
 133   0.0000       1.614033        43.9201 
 134   0.0000       1.730706        47.0949 
 135   0.0000       1.750935        47.6454 
 136   0.0000       1.822164        49.5836 
 137   0.0000       1.841817        50.1184 
 138   0.0000       1.851158        50.3726 
 139   0.0000       1.862162        50.6720 
 140   0.0000       1.867300        50.8118 
 141   0.0000       1.891248        51.4635 
 142   0.0000       1.945969        52.9525 
 143   0.0000       1.986630        54.0590 
 144   0.0000       2.034786        55.3693 
 145   0.0000       2.057778        55.9950 
 146   0.0000       2.086786        56.7843 
 147   0.0000       2.121582        57.7312 
 148   0.0000       2.148208        58.4557 
 149   0.0000       2.156306        58.6761 
 150   0.0000       2.163873        58.8820 
 151   0.0000       2.182611        59.3919 
 152   0.0000       2.201974        59.9188 
 153   0.0000       2.224319        60.5268 
 154   0.0000       2.243982        61.0619 
 155   0.0000       2.255367        61.3716 
 156   0.0000       2.354145        64.0596 
 157   0.0000       2.373549        64.5875 
 158   0.0000       2.410178        65.5843 
 159   0.0000       2.504170        68.1419 
 160   0.0000       2.526346        68.7454 
 161   0.0000       2.655032        72.2471 
 162   0.0000       2.695213        73.3405 
 163   0.0000       2.731320        74.3230 
 164   0.0000       2.934110        79.8412 
 165   0.0000       2.988143        81.3115 
 166   0.0000       3.073730        83.6405 
 167   0.0000      13.356876       363.4591 
 168   0.0000      13.471537       366.5791 
 169   0.0000      13.566612       369.1663 
 170   0.0000      13.646982       371.3533 
 171   0.0000      13.755942       374.3182 
 172   0.0000      13.971456       380.1826 
 173   0.0000      19.097671       519.6741 
 174   0.0000      19.318991       525.6965 

                    ********************************
                    * MULLIKEN POPULATION ANALYSIS *
                    ********************************

-----------------------
MULLIKEN ATOMIC CHARGES
-----------------------
   0 Sc:    0.505000
   1 C :    0.212446
   2 N :   -0.421360
   3 C :   -0.057872
   4 C :   -0.063017
   5 N :   -0.436564
   6 C :   -0.516917
   7 H :    0.277746
   8 H :    0.272095
   9 H :    0.261959
  10 C :   -0.517798
  11 H :    0.251573
  12 H :    0.281281
  13 H :    0.274205
  14 H :    0.305053
  15 H :    0.302509
  16 C :   -0.766153
  17 H :    0.291002
  18 H :    0.240365
  19 H :    0.251439
  20 H :    0.053009
Sum of atomic charges:    1.0000000

--------------------------------
MULLIKEN REDUCED ORBITAL CHARGES
--------------------------------
  0 Scs       :     7.161885  s :     7.161885
      pz      :     4.089137  p :    12.212848
      px      :     4.067891
      py      :     4.055820
      dz2     :     0.050421  d :     1.107771
      dxz     :     0.466835
      dyz     :     0.122290
      dx2y2   :     0.018484
      dxy     :     0.449741
      f0      :     0.001154  f :     0.012496
      f+1     :     0.004336
      f-1     :     0.001410
      f+2     :     0.001504
      f-2     :     0.003204
      f+3     :     0.000284
      f-3     :     0.000604
  1 C s       :     3.197260  s :     3.197260
      pz      :     0.985753  p :     2.525753
      px      :     0.839456
      py      :     0.700543
      dz2     :     0.008056  d :     0.064541
      dxz     :     0.010474
      dyz     :     0.020217
      dx2y2   :     0.014502
      dxy     :     0.011292
  2 N s       :     3.541001  s :     3.541001
      pz      :     1.229456  p :     3.828115
      px      :     1.349733
      py      :     1.248927
      dz2     :     0.012597  d :     0.052244
      dxz     :     0.007856
      dyz     :     0.012651
      dx2y2   :     0.009984
      dxy     :     0.009157
  3 C s       :     3.157442  s :     3.157442
      pz      :     0.856993  p :     2.846243
      px      :     1.051733
      py      :     0.937517
      dz2     :     0.013476  d :     0.054187
      dxz     :     0.010749
      dyz     :     0.013193
      dx2y2   :     0.006879
      dxy     :     0.009890
  4 C s       :     3.161031  s :     3.161031
      pz      :     0.870668  p :     2.847431
      px      :     0.936432
      py      :     1.040331
      dz2     :     0.012680  d :     0.054555
      dxz     :     0.010945
      dyz     :     0.013507
      dx2y2   :     0.011161
      dxy     :     0.006262
  5 N s       :     3.547039  s :     3.547039
      pz      :     1.229081  p :     3.839012
      px      :     1.368101
      py      :     1.241831
      dz2     :     0.011857  d :     0.050513
      dxz     :     0.008934
      dyz     :     0.011430
      dx2y2   :     0.008759
      dxy     :     0.009533
  6 C s       :     3.377705  s :     3.377705
      pz      :     1.163877  p :     3.091679
      px      :     1.011398
      py      :     0.916404
      dz2     :     0.007044  d :     0.047533
      dxz     :     0.005486
      dyz     :     0.013382
      dx2y2   :     0.008970
      dxy     :     0.012651
  7 H s       :     0.722254  s :     0.722254
  8 H s       :     0.727905  s :     0.727905
  9 H s       :     0.738041  s :     0.738041
 10 C s       :     3.372874  s :     3.372874
      pz      :     1.146343  p :     3.096479
      px      :     1.131704
      py      :     0.818432
      dz2     :     0.009054  d :     0.048446
      dxz     :     0.004629
      dyz     :     0.011178
      dx2y2   :     0.015485
      dxy     :     0.008100
 11 H s       :     0.748427  s :     0.748427
 12 H s       :     0.718719  s :     0.718719
 13 H s       :     0.725795  s :     0.725795
 14 H s       :     0.694947  s :     0.694947
 15 H s       :     0.697491  s :     0.697491
 16 C s       :     3.484900  s :     3.484900
      pz      :     1.158721  p :     3.255363
      px      :     1.101652
      py      :     0.994990
      dz2     :     0.007339  d :     0.025890
      dxz     :     0.010396
      dyz     :     0.000140
      dx2y2   :     0.002883
      dxy     :     0.005132
 17 H s       :     0.708998  s :     0.708998
 18 H s       :     0.759635  s :     0.759635
 19 H s       :     0.748561  s :     0.748561
 20 H s       :     0.946991  s :     0.946991


                     *******************************
                     * LOEWDIN POPULATION ANALYSIS *
                     *******************************

----------------------
LOEWDIN ATOMIC CHARGES
----------------------
   0 Sc:    0.319300
   1 C :   -0.036359
   2 N :    0.005521
   3 C :   -0.081981
   4 C :   -0.074139
   5 N :   -0.006371
   6 C :   -0.235079
   7 H :    0.158063
   8 H :    0.148386
   9 H :    0.152213
  10 C :   -0.238274
  11 H :    0.148943
  12 H :    0.155924
  13 H :    0.153524
  14 H :    0.169256
  15 H :    0.166768
  16 C :   -0.438831
  17 H :    0.157156
  18 H :    0.152261
  19 H :    0.135837
  20 H :    0.087881

-------------------------------
LOEWDIN REDUCED ORBITAL CHARGES
-------------------------------
  0 Scs       :     7.116425  s :     7.116425
      pz      :     4.133786  p :    12.299490
      px      :     4.096804
      py      :     4.068900
      dz2     :     0.070768  d :     1.231243
      dxz     :     0.525976
      dyz     :     0.141304
      dx2y2   :     0.023696
      dxy     :     0.469499
      f0      :     0.003254  f :     0.033542
      f+1     :     0.011661
      f-1     :     0.003562
      f+2     :     0.004038
      f-2     :     0.008684
      f+3     :     0.000613
      f-3     :     0.001730
  1 C s       :     2.943270  s :     2.943270
      pz      :     1.118987  p :     2.952178
      px      :     0.946146
      py      :     0.887045
      dz2     :     0.015613  d :     0.140911
      dxz     :     0.021234
      dyz     :     0.044197
      dx2y2   :     0.032466
      dxy     :     0.027401
  2 N s       :     3.049132  s :     3.049132
      pz      :     1.248734  p :     3.820685
      px      :     1.327109
      py      :     1.244842
      dz2     :     0.030976  d :     0.124663
      dxz     :     0.019627
      dyz     :     0.031384
      dx2y2   :     0.021640
      dxy     :     0.021035
  3 C s       :     2.882384  s :     2.882384
      pz      :     0.968724  p :     3.078700
      px      :     1.063814
      py      :     1.046162
      dz2     :     0.031261  d :     0.120897
      dxz     :     0.021424
      dyz     :     0.031050
      dx2y2   :     0.015034
      dxy     :     0.022129
  4 C s       :     2.885562  s :     2.885562
      pz      :     0.970071  p :     3.067302
      px      :     1.006993
      py      :     1.090238
      dz2     :     0.029105  d :     0.121276
      dxz     :     0.025093
      dyz     :     0.028309
      dx2y2   :     0.023694
      dxy     :     0.015075
  5 N s       :     3.056101  s :     3.056101
      pz      :     1.251279  p :     3.830351
      px      :     1.333809
      py      :     1.245263
      dz2     :     0.029131  d :     0.119919
      dxz     :     0.021005
      dyz     :     0.029576
      dx2y2   :     0.019173
      dxy     :     0.021033
  6 C s       :     2.947424  s :     2.947424
      pz      :     1.150173  p :     3.197395
      px      :     1.057224
      py      :     0.989998
      dz2     :     0.012532  d :     0.090260
      dxz     :     0.009689
      dyz     :     0.024855
      dx2y2   :     0.017946
      dxy     :     0.025238
  7 H s       :     0.841937  s :     0.841937
  8 H s       :     0.851614  s :     0.851614
  9 H s       :     0.847787  s :     0.847787
 10 C s       :     2.943803  s :     2.943803
      pz      :     1.140725  p :     3.201598
      px      :     1.131200
      py      :     0.929673
      dz2     :     0.016259  d :     0.092873
      dxz     :     0.007353
      dyz     :     0.022001
      dx2y2   :     0.030477
      dxy     :     0.016782
 11 H s       :     0.851057  s :     0.851057
 12 H s       :     0.844076  s :     0.844076
 13 H s       :     0.846476  s :     0.846476
 14 H s       :     0.830744  s :     0.830744
 15 H s       :     0.833232  s :     0.833232
 16 C s       :     3.090135  s :     3.090135
      pz      :     1.166009  p :     3.309328
      px      :     1.122576
      py      :     1.020744
      dz2     :     0.011779  d :     0.039368
      dxz     :     0.015712
      dyz     :     0.000224
      dx2y2   :     0.004207
      dxy     :     0.007445
 17 H s       :     0.842844  s :     0.842844
 18 H s       :     0.847739  s :     0.847739
 19 H s       :     0.864163  s :     0.864163
 20 H s       :     0.912119  s :     0.912119


                      *****************************
                      * MAYER POPULATION ANALYSIS *
                      *****************************

  NA   - Mulliken gross atomic population
  ZA   - Total nuclear charge
  QA   - Mulliken gross atomic charge
  VA   - Mayer's total valence
  BVA  - Mayer's bonded valence
  FA   - Mayer's free valence

  ATOM       NA         ZA         QA         VA         BVA        FA
  0 Sc    20.4950    21.0000     0.5050     1.2938     1.2938     0.0000
  1 C      5.7876     6.0000     0.2124     3.2272     3.2272    -0.0000
  2 N      7.4214     7.0000    -0.4214     3.4025     3.4025     0.0000
  3 C      6.0579     6.0000    -0.0579     3.7395     3.7395     0.0000
  4 C      6.0630     6.0000    -0.0630     3.7510     3.7510     0.0000
  5 N      7.4366     7.0000    -0.4366     3.3764     3.3764     0.0000
  6 C      6.5169     6.0000    -0.5169     3.5962     3.5962    -0.0000
  7 H      0.7223     1.0000     0.2777     0.8956     0.8956     0.0000
  8 H      0.7279     1.0000     0.2721     0.8854     0.8854    -0.0000
  9 H      0.7380     1.0000     0.2620     0.8992     0.8992    -0.0000
 10 C      6.5178     6.0000    -0.5178     3.5987     3.5987     0.0000
 11 H      0.7484     1.0000     0.2516     0.9128     0.9128     0.0000
 12 H      0.7187     1.0000     0.2813     0.8840     0.8840    -0.0000
 13 H      0.7258     1.0000     0.2742     0.8873     0.8873    -0.0000
 14 H      0.6949     1.0000     0.3051     0.8760     0.8760    -0.0000
 15 H      0.6975     1.0000     0.3025     0.8776     0.8776    -0.0000
 16 C      6.7662     6.0000    -0.7662     3.6902     3.6902    -0.0000
 17 H      0.7090     1.0000     0.2910     0.8842     0.8842    -0.0000
 18 H      0.7596     1.0000     0.2404     0.9148     0.9148     0.0000
 19 H      0.7486     1.0000     0.2514     0.8962     0.8962    -0.0000
 20 H      0.9470     1.0000     0.0530     0.9916     0.9916    -0.0000

  Mayer bond orders larger than 0.100000
B(  0-Sc,  1-C ) :   0.7096 B(  0-Sc, 16-C ) :   0.2006 B(  0-Sc, 20-H ) :   0.2253 
B(  1-C ,  2-N ) :   1.2249 B(  1-C ,  5-N ) :   1.2095 B(  2-N ,  3-C ) :   1.1492 
B(  2-N , 10-C ) :   0.9113 B(  3-C ,  4-C ) :   1.6317 B(  3-C , 14-H ) :   0.8773 
B(  4-C ,  5-N ) :   1.1465 B(  4-C , 15-H ) :   0.8788 B(  5-N ,  6-C ) :   0.9044 
B(  6-C ,  7-H ) :   0.9051 B(  6-C ,  8-H ) :   0.8921 B(  6-C ,  9-H ) :   0.8921 
B( 10-C , 11-H ) :   0.8964 B( 10-C , 12-H ) :   0.8932 B( 10-C , 13-H ) :   0.8959 
B( 16-C , 17-H ) :   0.8927 B( 16-C , 18-H ) :   0.9182 B( 16-C , 19-H ) :   0.8996 
B( 16-C , 20-H ) :   0.7613 


------------------
HIRSHFELD ANALYSIS
------------------

Total integrated alpha density =     40.999774343
Total integrated beta density  =     40.999774343

  ATOM     CHARGE      SPIN    
   0 Sc   0.426822    0.000000
   1 C   -0.074046    0.000000
   2 N   -0.009786    0.000000
   3 C    0.017385    0.000000
   4 C    0.020808    0.000000
   5 N   -0.015337    0.000000
   6 C    0.015933    0.000000
   7 H    0.069108    0.000000
   8 H    0.055931    0.000000
   9 H    0.055789    0.000000
  10 C    0.013354    0.000000
  11 H    0.047856    0.000000
  12 H    0.064685    0.000000
  13 H    0.062779    0.000000
  14 H    0.087171    0.000000
  15 H    0.086030    0.000000
  16 C   -0.057948    0.000000
  17 H    0.051524    0.000000
  18 H    0.058254    0.000000
  19 H    0.036729    0.000000
  20 H   -0.012588    0.000000

  TOTAL   1.000451    0.000000

-------
TIMINGS
-------

Total SCF time: 0 days 0 hours 4 min 0 sec 

Total time                  ....     240.195 sec
Sum of individual times     ....     238.083 sec  ( 99.1%)

Fock matrix formation       ....     235.688 sec  ( 98.1%)
  Split-RI-J                ....      37.127 sec  ( 15.8% of F)
  Chain of spheres X        ....     171.766 sec  ( 72.9% of F)
  XC integration            ....      26.769 sec  ( 11.4% of F)
    Basis function eval.    ....      10.332 sec  ( 38.6% of XC)
    Density eval.           ....       5.557 sec  ( 20.8% of XC)
    XC-Functional eval.     ....       1.575 sec  (  5.9% of XC)
    XC-Potential eval.      ....       7.605 sec  ( 28.4% of XC)
Diagonalization             ....       0.097 sec  (  0.0%)
Density matrix formation    ....       0.018 sec  (  0.0%)
Population analysis         ....       0.381 sec  (  0.2%)
Initial guess               ....       0.019 sec  (  0.0%)
Orbital Transformation      ....       0.086 sec  (  0.0%)
Orbital Orthonormalization  ....       0.000 sec  (  0.0%)
DIIS solution               ....       0.038 sec  (  0.0%)
Grid generation             ....       1.756 sec  (  0.7%)

Maximum memory used throughout the entire SCF-calculation: 96.5 MB


-------------------------------------------------------------------------------
                          DFT DISPERSION CORRECTION                            
                                                                               
                              DFTD3 V3.1  Rev 1                                
                          USING Becke-Johnson damping                          
-------------------------------------------------------------------------------
The PBEh-3c composite method is recognized
Using three-body term ABC
Active option DFTDOPT                   ...         4   

molecular C6(AA) [au] = 5685.426772 


            DFT-D V3
 parameters
 s6 scaling factor         :     1.0000 
 a1 scaling factor         :     0.4860 
 s8 scaling factor         :     0.0000 
 a2 scaling factor         :     4.5000 
 Damping factor alpha9(ATM):    16.0000 
 ad hoc parameters k1-k3   :    16.0000     1.3333    -4.0000 

 Edisp/kcal,au: -7.092707612483  -0.011302947842 
 E6   /kcal   :  -7.149965192 
 E8   /kcal   :  -0.000000000 
 E6(ABC)      :   0.057257580 
 % E8         :   0.000000000 
 % E6(ABC)    :  -0.807273936 

-------------------------   ----------------
Dispersion correction           -0.011302948
-------------------------   ----------------

------------------   -----------------
gCP correction             0.030182666
------------------   -----------------

-------------------------   --------------------
FINAL SINGLE POINT ENERGY     -1104.351000510662
-------------------------   --------------------

------------------------------------------------------------------------------
                         ORCA SCF GRADIENT CALCULATION
------------------------------------------------------------------------------

 ... reading COSX grid (gridx3)
Gradient of the Kohn-Sham DFT energy:
Kohn-Sham wavefunction type      ... RKS
Hartree-Fock exchange scaling    ...    0.420
Number of operators              ...    1
Number of atoms                  ...   21
Basis set dimensions             ...  175
Integral neglect threshold       ... 2.5e-11
Integral primitive cutoff        ... 2.5e-12
SHARK Integral package           ... ON

Nuc. rep. gradient       (SHARK) ... done (  0.0 sec)
HCore & Overlap gradient (SHARK) ... done (  0.3 sec)
RI-J gradient            (SHARK) ... done (  1.7 sec)
COSX-gradient                    ... done ( 13.2 sec)
Exchange-correlation gradient    ... done
Dispersion correction            ... done
gCP correction                   ... done

------------------
CARTESIAN GRADIENT
------------------

   1   Sc  :    0.001406190   -0.003565988    0.006926284
   2   C   :    0.011081521   -0.009184482   -0.021373454
   3   N   :   -0.004350880    0.005083504   -0.001040402
   4   C   :   -0.002258177   -0.001743153    0.007592529
   5   C   :   -0.007252594   -0.001803235    0.013712141
   6   N   :   -0.008079552    0.003225442    0.007593999
   7   C   :    0.004574117    0.011984668   -0.013284543
   8   H   :    0.000970449    0.001106707    0.002354739
   9   H   :    0.000194005   -0.003082717    0.004580034
  10   H   :    0.002293091   -0.000718339    0.001757594
  11   C   :   -0.003011552    0.000138468    0.000589598
  12   H   :    0.000359688   -0.000784615   -0.001018781
  13   H   :    0.000692634   -0.000479219    0.000281425
  14   H   :    0.000267481   -0.001903297    0.001080356
  15   H   :    0.004416843    0.002817723   -0.001588795
  16   H   :    0.000650160   -0.004142460   -0.004592346
  17   C   :   -0.044250888    0.016373652    0.028982454
  18   H   :    0.010004375    0.004041346    0.002112430
  19   H   :    0.005313135    0.045372664    0.000421366
  20   H   :    0.014437545    0.009512341   -0.017355101
  21   H   :    0.012141939   -0.072693030   -0.017667522

Difference to translation invariance:
           :   -0.0004004724   -0.0004440178    0.0000640036

Difference to rotation invariance:
           :   -0.0020224620    0.0017289578   -0.0008087874

Norm of the cartesian gradient     ...    0.1153573186
RMS gradient                       ...    0.0145336560
MAX gradient                       ...    0.0726930299

-------
TIMINGS
-------

Total SCF gradient time            ...       18.836 sec

One electron gradient       ....       0.312 sec  (  1.7%)
RI-J Coulomb gradient       ....       1.741 sec  (  9.2%)
COSX gradient               ....      13.209 sec  ( 70.1%)
XC gradient                 ....       2.847 sec  ( 15.1%)

Maximum memory used throughout the entire SCFGRAD-calculation: 68.4 MB

                            ***************************************
                            *     ORCA property calculations      *
                            ***************************************

                                    ---------------------
                                    Active property flags
                                    ---------------------
   (+) Dipole Moment


------------------------------------------------------------------------------
                       ORCA ELECTRIC PROPERTIES CALCULATION
------------------------------------------------------------------------------

Dipole Moment Calculation                       ... on
Quadrupole Moment Calculation                   ... off
Polarizability Calculation                      ... off
GBWName                                         ... 5_2_orca.gbw
Electron density                                ... 5_2_orca.scfp
The origin for moment calculation is the CENTER OF MASS  = ( 0.823762, -0.845523 -0.147314)

-------------
DIPOLE MOMENT
-------------
                                X             Y             Z
Electronic contribution:      9.74659      -9.63418      -2.02077
Nuclear contribution   :     -9.44847       9.59048       1.96177
                        -----------------------------------------
Total Dipole Moment    :      0.29813      -0.04371      -0.05901
                        -----------------------------------------
Magnitude (a.u.)       :      0.30703
Magnitude (Debye)      :      0.78042



--------------------
Rotational spectrum 
--------------------
 
Rotational constants in cm-1:     0.042052     0.029297     0.022846 
Rotational constants in MHz :  1260.691449   878.295157   684.914293 

 Dipole components along the rotational axes: 
x,y,z [a.u.] :    -0.157164    -0.045003    -0.259893 
x,y,z [Debye]:    -0.399480    -0.114388    -0.660597 

 

Timings for individual modules:

Sum of individual times         ...      259.493 sec (=   4.325 min)
GTO integral calculation        ...        0.409 sec (=   0.007 min)   0.2 %
SCF iterations                  ...      240.225 sec (=   4.004 min)  92.6 %
SCF Gradient evaluation         ...       18.859 sec (=   0.314 min)   7.3 %
                             ****ORCA TERMINATED NORMALLY****
TOTAL RUN TIME: 0 days 0 hours 4 minutes 19 seconds 834 msec
