
                                 *****************
                                 * O   R   C   A *
                                 *****************

                                            #,                                       
                                            ###                                      
                                            ####                                     
                                            #####                                    
                                            ######                                   
                                           ########,                                 
                                     ,,################,,,,,                         
                               ,,#################################,,                 
                          ,,##########################################,,             
                       ,#########################################, ''#####,          
                    ,#############################################,,   '####,        
                  ,##################################################,,,,####,       
                ,###########''''           ''''###############################       
              ,#####''   ,,,,##########,,,,          '''####'''          '####       
            ,##' ,,,,###########################,,,                        '##       
           ' ,,###''''                  '''############,,,                           
         ,,##''                                '''############,,,,        ,,,,,,###''
      ,#''                                            '''#######################'''  
     '                                                          ''''####''''         
             ,#######,   #######,   ,#######,      ##                                
            ,#'     '#,  ##    ##  ,#'     '#,    #''#        ######   ,####,        
            ##       ##  ##   ,#'  ##            #'  '#       #        #'  '#        
            ##       ##  #######   ##           ,######,      #####,   #    #        
            '#,     ,#'  ##    ##  '#,     ,#' ,#      #,         ##   #,  ,#        
             '#######'   ##     ##  '#######'  #'      '#     #####' # '####'        



                  #######################################################
                  #                        -***-                        #
                  #          Department of theory and spectroscopy      #
                  #    Directorship and core code : Frank Neese         #
                  #        Max Planck Institute fuer Kohlenforschung    #
                  #                Kaiser Wilhelm Platz 1               #
                  #                 D-45470 Muelheim/Ruhr               #
                  #                      Germany                        #
                  #                                                     #
                  #                  All rights reserved                #
                  #                        -***-                        #
                  #######################################################


                         Program Version 5.0.3 -  RELEASE  -


 With contributions from (in alphabetic order):
   Daniel Aravena         : Magnetic Suceptibility
   Michael Atanasov       : Ab Initio Ligand Field Theory (pilot matlab implementation)
   Alexander A. Auer      : GIAO ZORA, VPT2 properties, NMR spectrum
   Ute Becker             : Parallelization
   Giovanni Bistoni       : ED, misc. LED, open-shell LED, HFLD
   Martin Brehm           : Molecular dynamics
   Dmytro Bykov           : SCF Hessian
   Vijay G. Chilkuri      : MRCI spin determinant printing, contributions to CSF-ICE
   Dipayan Datta          : RHF DLPNO-CCSD density
   Achintya Kumar Dutta   : EOM-CC, STEOM-CC
   Dmitry Ganyushin       : Spin-Orbit,Spin-Spin,Magnetic field MRCI
   Miquel Garcia          : C-PCM and meta-GGA Hessian, CC/C-PCM, Gaussian charge scheme
   Yang Guo               : DLPNO-NEVPT2, F12-NEVPT2, CIM, IAO-localization
   Andreas Hansen         : Spin unrestricted coupled pair/coupled cluster methods
   Benjamin Helmich-Paris : MC-RPA, TRAH-SCF, COSX integrals
   Lee Huntington         : MR-EOM, pCC
   Robert Izsak           : Overlap fitted RIJCOSX, COSX-SCS-MP3, EOM
   Marcus Kettner         : VPT2
   Christian Kollmar      : KDIIS, OOCD, Brueckner-CCSD(T), CCSD density, CASPT2, CASPT2-K
   Simone Kossmann        : Meta GGA functionals, TD-DFT gradient, OOMP2, MP2 Hessian
   Martin Krupicka        : Initial AUTO-CI
   Lucas Lang             : DCDCAS
   Marvin Lechner         : AUTO-CI (C++ implementation), FIC-MRCC
   Dagmar Lenk            : GEPOL surface, SMD
   Dimitrios Liakos       : Extrapolation schemes; Compound Job, initial MDCI parallelization
   Dimitrios Manganas     : Further ROCIS development; embedding schemes
   Dimitrios Pantazis     : SARC Basis sets
   Anastasios Papadopoulos: AUTO-CI, single reference methods and gradients
   Taras Petrenko         : DFT Hessian,TD-DFT gradient, ASA, ECA, R-Raman, ABS, FL, XAS/XES, NRVS
   Peter Pinski           : DLPNO-MP2, DLPNO-MP2 Gradient
   Christoph Reimann      : Effective Core Potentials
   Marius Retegan         : Local ZFS, SOC
   Christoph Riplinger    : Optimizer, TS searches, QM/MM, DLPNO-CCSD(T), (RO)-DLPNO pert. Triples
   Tobias Risthaus        : Range-separated hybrids, TD-DFT gradient, RPA, STAB
   Michael Roemelt        : Original ROCIS implementation
   Masaaki Saitow         : Open-shell DLPNO-CCSD energy and density
   Barbara Sandhoefer     : DKH picture change effects
   Avijit Sen             : IP-ROCIS
   Kantharuban Sivalingam : CASSCF convergence, NEVPT2, FIC-MRCI
   Bernardo de Souza      : ESD, SOC TD-DFT
   Georgi Stoychev        : AutoAux, RI-MP2 NMR, DLPNO-MP2 response
   Willem Van den Heuvel  : Paramagnetic NMR
   Boris Wezisla          : Elementary symmetry handling
   Frank Wennmohs         : Technical directorship


 We gratefully acknowledge several colleagues who have allowed us to
 interface, adapt or use parts of their codes:
   Stefan Grimme, W. Hujo, H. Kruse, P. Pracht,  : VdW corrections, initial TS optimization,
                  C. Bannwarth, S. Ehlert          DFT functionals, gCP, sTDA/sTD-DF
   Ed Valeev, F. Pavosevic, A. Kumar             : LibInt (2-el integral package), F12 methods
   Garnet Chan, S. Sharma, J. Yang, R. Olivares  : DMRG
   Ulf Ekstrom                                   : XCFun DFT Library
   Mihaly Kallay                                 : mrcc  (arbitrary order and MRCC methods)
   Jiri Pittner, Ondrej Demel                    : Mk-CCSD
   Frank Weinhold                                : gennbo (NPA and NBO analysis)
   Christopher J. Cramer and Donald G. Truhlar   : smd solvation model
   Lars Goerigk                                  : TD-DFT with DH, B97 family of functionals
   V. Asgeirsson, H. Jonsson                     : NEB implementation
   FAccTs GmbH                                   : IRC, NEB, NEB-TS, DLPNO-Multilevel, CI-OPT
                                                   MM, QMMM, 2- and 3-layer-ONIOM, Crystal-QMMM,
                                                   LR-CPCM, SF, NACMEs, symmetry and pop. for TD-DFT,
                                                   nearIR, NL-DFT gradient (VV10), updates on ESD,
                                                   ML-optimized integration grids
   S Lehtola, MJT Oliveira, MAL Marques          : LibXC Library
   Liviu Ungur et al                             : ANISO software


 Your calculation uses the libint2 library for the computation of 2-el integrals
 For citations please refer to: http://libint.valeyev.net

 Your ORCA version has been built with support for libXC version: 5.1.0
 For citations please refer to: https://tddft.org/programs/libxc/

 This ORCA versions uses:
   CBLAS   interface :  Fast vector & matrix operations
   LAPACKE interface :  Fast linear algebra routines
   SCALAPACK package :  Parallel linear algebra routines
   Shared memory     :  Shared parallel matrices
   BLAS/LAPACK       :  OpenBLAS 0.3.15  USE64BITINT DYNAMIC_ARCH NO_AFFINITY SkylakeX SINGLE_THREADED
        Core in use  :  SkylakeX
   Copyright (c) 2011-2014, The OpenBLAS Project


Your calculation utilizes the geometrical counterpoise correction gCP
Please cite in your paper:
H.Kruse, S. Grimme J.Chem.Phys., 136, (2012), 154101 
   

Your calculation utilizes the atom-pairwise dispersion correction
with the Becke-Johnson damping scheme (D3BJ)
Cite in your paper:
S.Grimme, S.Ehrlich, L.Goerigk, J Comput Chem, (2011), 32, 1456–1465 
S.Grimme, J.Antony, S.Ehrlich and H.Krieg, J.Chem.Phys., 132, (2010), 154104 
   

Your calculation employs the composite approach PBEh-3c.
Please cite in your paper:
S. Grimme, J. G. Brandenburg, C. Bannwarth, A. Hansen J.Chem.Phys., 143, (2015), 054107 
   

================================================================================

----- Orbital basis set information -----
Your calculation utilizes the basis: def2-mSVP

----- AuxJ basis set information -----
Your calculation utilizes the auxiliary basis: def2/J
   F. Weigend, Phys. Chem. Chem. Phys. 8, 1057 (2006).

================================================================================
                                        WARNINGS
                       Please study these warnings very carefully!
================================================================================


INFO   : the flag for use of the SHARK integral package has been found!

================================================================================
                                       INPUT FILE
================================================================================
NAME = 9_6_orca.inp
|  1> ! EnGrad PBEh-3c
|  2> %output 
|  3> xyzfile=True 
|  4> end 
|  5> %scf 
|  6> maxiter 250 
|  7> end
|  8> %output
|  9> Print[P_Hirshfeld] = 1
| 10> end
| 11> % maxcore
| 12> 4000
| 13> *xyz 1 1
| 14> Sc   0.79425464  -0.19552927  -2.10007685 
| 15> C    0.32212006  -0.51321619   0.19544902 
| 16> N   -0.44343296  -1.34508715   0.92813134 
| 17> C   -0.70649876  -0.81621796   2.17039700 
| 18> C   -0.06654295   0.36287934   2.23014585 
| 19> N    0.55426514   0.52846619   1.01793037 
| 20> C    1.37555524   1.67234429   0.67903628 
| 21> H    1.26392519   2.43418364   1.44113538 
| 22> H    1.05762431   2.09759931  -0.27622180 
| 23> H    2.43144874   1.40641425   0.63114351 
| 24> C   -0.96144352  -2.63915525   0.51647806 
| 25> H   -0.69316664  -2.84108787  -0.51703640 
| 26> H   -2.04653713  -2.65807959   0.59293847 
| 27> H   -0.54953425  -3.42179225   1.15155901 
| 28> H   -1.32446953  -1.33026687   2.90586410 
| 29> H   -0.02590935   1.09886419   3.03072103 
| 30> C    0.01656530   1.57938896  -2.80656448 
| 31> H   -0.55885669   1.43344949  -3.72255000 
| 32> H    0.64760087   2.44877321  -2.92378578 
| 33> H   -0.73142559   1.78163939  -2.03629665 
| 34> H   -0.36056597  -1.07656081  -3.10645353 
| 35> *
| 36> 
| 37>                          ****END OF INPUT****
================================================================================

                     *******************************
                     * Energy+Gradient Calculation *
                     *******************************

---------------------------------
CARTESIAN COORDINATES (ANGSTROEM)
---------------------------------
  Sc     0.794255   -0.195529   -2.100077
  C      0.322120   -0.513216    0.195449
  N     -0.443433   -1.345087    0.928131
  C     -0.706499   -0.816218    2.170397
  C     -0.066543    0.362879    2.230146
  N      0.554265    0.528466    1.017930
  C      1.375555    1.672344    0.679036
  H      1.263925    2.434184    1.441135
  H      1.057624    2.097599   -0.276222
  H      2.431449    1.406414    0.631144
  C     -0.961444   -2.639155    0.516478
  H     -0.693167   -2.841088   -0.517036
  H     -2.046537   -2.658080    0.592938
  H     -0.549534   -3.421792    1.151559
  H     -1.324470   -1.330267    2.905864
  H     -0.025909    1.098864    3.030721
  C      0.016565    1.579389   -2.806564
  H     -0.558857    1.433449   -3.722550
  H      0.647601    2.448773   -2.923786
  H     -0.731426    1.781639   -2.036297
  H     -0.360566   -1.076561   -3.106454

----------------------------
CARTESIAN COORDINATES (A.U.)
----------------------------
  NO LB      ZA    FRAG     MASS         X           Y           Z
   0 Sc   21.0000    0    44.960    1.500924   -0.369497   -3.968570
   1 C     6.0000    0    12.011    0.608719   -0.969838    0.369345
   2 N     7.0000    0    14.007   -0.837967   -2.541846    1.753914
   3 C     6.0000    0    12.011   -1.335089   -1.542428    4.101456
   4 C     6.0000    0    12.011   -0.125748    0.685743    4.214365
   5 N     7.0000    0    14.007    1.047409    0.998656    1.923610
   6 C     6.0000    0    12.011    2.599423    3.160273    1.283193
   7 H     1.0000    0     1.008    2.388472    4.599940    2.723351
   8 H     1.0000    0     1.008    1.998620    3.963888   -0.521984
   9 H     1.0000    0     1.008    4.594772    2.657738    1.192688
  10 C     6.0000    0    12.011   -1.816865   -4.987281    0.976002
  11 H     1.0000    0     1.008   -1.309895   -5.368878   -0.977057
  12 H     1.0000    0     1.008   -3.867395   -5.023042    1.120491
  13 H     1.0000    0     1.008   -1.038469   -6.466250    2.176131
  14 H     1.0000    0     1.008   -2.502885   -2.513840    5.491287
  15 H     1.0000    0     1.008   -0.048962    2.076552    5.727233
  16 C     6.0000    0    12.011    0.031304    2.984613   -5.303638
  17 H     1.0000    0     1.008   -1.056086    2.708827   -7.034600
  18 H     1.0000    0     1.008    1.223788    4.627511   -5.525154
  19 H     1.0000    0     1.008   -1.382194    3.366811   -3.848043
  20 H     1.0000    0     1.008   -0.681371   -2.034405   -5.870346

--------------------------------
INTERNAL COORDINATES (ANGSTROEM)
--------------------------------
 Sc     0   0   0     0.000000000000     0.00000000     0.00000000
 C      1   0   0     2.365010583615     0.00000000     0.00000000
 N      2   1   0     1.347183767184   136.40842417     0.00000000
 C      3   2   1     1.375547238475   111.24955712   200.83608656
 C      4   3   2     1.342901264686   106.65604200   358.64624977
 N      2   1   3     1.347393442937   117.01631878   201.30195516
 C      6   2   1     1.448386599032   124.43283475   343.15015834
 H      7   6   2     1.083353821008   109.41164311   170.57353070
 H      7   6   2     1.092904345170   110.29523768    51.74538709
 H      7   6   2     1.089919073571   111.52599048   289.49183748
 C      3   2   1     1.453411714087   126.74722425    20.50757310
 H     11   3   2     1.086692875836   110.29379358   356.70154970
 H     11   3   2     1.087948743004   110.55196721   237.26664622
 H     11   3   2     1.088814829773   109.87419261   117.05061877
 H      4   3   2     1.089516410904   122.45952940   178.93320117
 H      5   4   3     1.088230401942   130.11648888   179.25464014
 C      1   2   3     2.062585805265   111.88742499   111.39460072
 H     17   1   2     1.091530241601   111.78665721   230.07725269
 H     17   1   2     1.080636709504   120.61631593   100.10259096
 H     17   1   2     1.092569511698   100.13372140   340.62058793
 H      1   2   3     1.767094009328   110.81436056    13.44016971

---------------------------
INTERNAL COORDINATES (A.U.)
---------------------------
 Sc     0   0   0     0.000000000000     0.00000000     0.00000000
 C      1   0   0     4.469222306857     0.00000000     0.00000000
 N      2   1   0     2.545808372041   136.40842417     0.00000000
 C      3   2   1     2.599407564989   111.24955712   200.83608656
 C      4   3   2     2.537715615154   106.65604200   358.64624977
 N      2   1   3     2.546204601791   117.01631878   201.30195516
 C      6   2   1     2.737054008211   124.43283475   343.15015834
 H      7   6   2     2.047242027842   109.41164311   170.57353070
 H      7   6   2     2.065289902944   110.29523768    51.74538709
 H      7   6   2     2.059648557187   111.52599048   289.49183748
 C      3   2   1     2.746550099457   126.74722425    20.50757310
 H     11   3   2     2.053551927012   110.29379358   356.70154970
 H     11   3   2     2.055925172022   110.55196721   237.26664622
 H     11   3   2     2.057561838823   109.87419261   117.05061877
 H      4   3   2     2.058887635021   122.45952940   178.93320117
 H      5   4   3     2.056457430277   130.11648888   179.25464014
 C      1   2   3     3.897722299664   111.88742499   111.39460072
 H     17   1   2     2.062693223518   111.78665721   230.07725269
 H     17   1   2     2.042107431224   120.61631593   100.10259096
 H     17   1   2     2.064657159380   100.13372140   340.62058793
 H      1   2   3     3.339323730523   110.81436056    13.44016971

---------------------
BASIS SET INFORMATION
---------------------
There are 4 groups of distinct atoms

 Group   1 Type Sc  : 14s9p5d1f contracted to 5s3p2d1f pattern {63311/531/41/1}
 Group   2 Type C   : 8s4p1d contracted to 4s2p1d pattern {5111/31/1}
 Group   3 Type N   : 8s4p1d contracted to 4s2p1d pattern {5111/31/1}
 Group   4 Type H   : 4s contracted to 2s pattern {31}

Atom   0Sc   basis set group =>   1
Atom   1C    basis set group =>   2
Atom   2N    basis set group =>   3
Atom   3C    basis set group =>   2
Atom   4C    basis set group =>   2
Atom   5N    basis set group =>   3
Atom   6C    basis set group =>   2
Atom   7H    basis set group =>   4
Atom   8H    basis set group =>   4
Atom   9H    basis set group =>   4
Atom  10C    basis set group =>   2
Atom  11H    basis set group =>   4
Atom  12H    basis set group =>   4
Atom  13H    basis set group =>   4
Atom  14H    basis set group =>   4
Atom  15H    basis set group =>   4
Atom  16C    basis set group =>   2
Atom  17H    basis set group =>   4
Atom  18H    basis set group =>   4
Atom  19H    basis set group =>   4
Atom  20H    basis set group =>   4
---------------------------------
AUXILIARY/J BASIS SET INFORMATION
---------------------------------
There are 4 groups of distinct atoms

 Group   1 Type Sc  : 19s5p5d3f3g contracted to 8s5p5d2f3g pattern {121111111/11111/11111/21/111}
 Group   2 Type C   : 12s5p4d2f1g contracted to 6s4p3d1f1g pattern {711111/2111/211/2/1}
 Group   3 Type N   : 12s5p4d2f1g contracted to 6s4p3d1f1g pattern {711111/2111/211/2/1}
 Group   4 Type H   : 5s2p1d contracted to 3s1p1d pattern {311/2/1}

Atom   0Sc   basis set group =>   1
Atom   1C    basis set group =>   2
Atom   2N    basis set group =>   3
Atom   3C    basis set group =>   2
Atom   4C    basis set group =>   2
Atom   5N    basis set group =>   3
Atom   6C    basis set group =>   2
Atom   7H    basis set group =>   4
Atom   8H    basis set group =>   4
Atom   9H    basis set group =>   4
Atom  10C    basis set group =>   2
Atom  11H    basis set group =>   4
Atom  12H    basis set group =>   4
Atom  13H    basis set group =>   4
Atom  14H    basis set group =>   4
Atom  15H    basis set group =>   4
Atom  16C    basis set group =>   2
Atom  17H    basis set group =>   4
Atom  18H    basis set group =>   4
Atom  19H    basis set group =>   4
Atom  20H    basis set group =>   4
------------------------------------------------------------------------------
                           ORCA GTO INTEGRAL CALCULATION
                           -- RI-GTO INTEGRALS CHOSEN --
------------------------------------------------------------------------------
------------------------------------------------------------------------------
                   ___                                                        
                  /   \      - P O W E R E D   B Y -                         
                 /     \                                                     
                 |  |  |   _    _      __       _____    __    __             
                 |  |  |  | |  | |    /  \     |  _  \  |  |  /  |          
                  \  \/   | |  | |   /    \    | | | |  |  | /  /          
                 / \  \   | |__| |  /  /\  \   | |_| |  |  |/  /          
                |  |  |   |  __  | /  /__\  \  |    /   |      \           
                |  |  |   | |  | | |   __   |  |    \   |  |\   \          
                \     /   | |  | | |  |  |  |  | |\  \  |  | \   \       
                 \___/    |_|  |_| |__|  |__|  |_| \__\ |__|  \__/        
                                                                              
                      - O R C A' S   B I G   F R I E N D -                    
                                      &                                       
                       - I N T E G R A L  F E E D E R -                       
                                                                              
 v1 FN, 2020, v2 2021                                                         
------------------------------------------------------------------------------


Reading SHARK input file 9_6_orca.SHARKINP.tmp ... ok
----------------------
SHARK INTEGRAL PACKAGE
----------------------

Number of atoms                             ...     21
Number of basis functions                   ...    175
Number of shells                            ...     91
Maximum angular momentum                    ...      3
Integral batch strategy                     ... SHARK/LIBINT Hybrid
RI-J (if used) integral strategy            ... SPLIT-RIJ (Revised 2003 algorithm where possible)
Printlevel                                  ...      1
Contraction scheme used                     ... SEGMENTED contraction
Coulomb Range Separation                    ... NOT USED
Exchange Range Separation                   ... NOT USED
Finite Nucleus Model                        ... NOT USED
Auxiliary Coulomb fitting basis             ... AVAILABLE
   # of basis functions in Aux-J            ...    613
   # of shells in Aux-J                     ...    203
   Maximum angular momentum in Aux-J        ...      4
Auxiliary J/K fitting basis                 ... NOT available
Auxiliary Correlation fitting basis         ... NOT available
Auxiliary 'external' fitting basis          ... NOT available
Integral threshold                          ...     2.500000e-11
Primitive cut-off                           ...     2.500000e-12
Primitive pair pre-selection threshold      ...     2.500000e-12

Calculating pre-screening integrals         ... done (  0.1 sec) Dimension = 91
Organizing shell pair data                  ... done (  0.1 sec)
Shell pair information
Total number of shell pairs                 ...      4186
Shell pairs after pre-screening             ...      3644
Total number of primitive shell pairs       ...     16651
Primitive shell pairs kept                  ...      9796
          la=0 lb=0:   1538 shell pairs
          la=1 lb=0:   1075 shell pairs
          la=1 lb=1:    186 shell pairs
          la=2 lb=0:    521 shell pairs
          la=2 lb=1:    182 shell pairs
          la=2 lb=2:     51 shell pairs
          la=3 lb=0:     61 shell pairs
          la=3 lb=1:     19 shell pairs
          la=3 lb=2:     10 shell pairs
          la=3 lb=3:      1 shell pairs

Calculating one electron integrals          ... done (  0.0 sec)
Calculating RI/J V-Matrix + Cholesky decomp.... done (  0.0 sec)
Calculating Nuclear repulsion               ... done (  0.0 sec) ENN=    581.343880374096 Eh

SHARK setup successfully completed in   0.4 seconds

Maximum memory used throughout the entire GTOINT-calculation: 33.2 MB
-------------------------------------------------------------------------------
                                 ORCA SCF
-------------------------------------------------------------------------------

------------
SCF SETTINGS
------------
Hamiltonian:
 Density Functional     Method          .... DFT(GTOs)
 Exchange Functional    Exchange        .... PBE
   PBE kappa parameter   XKappa         ....  1.024500
   PBE mue parameter    XMuePBE         ....  0.123457
 Correlation Functional Correlation     .... PBE
   PBE beta parameter  CBetaPBE         ....  0.030000
 LDA part of GGA corr.  LDAOpt          .... PW91-LDA
 Gradients option       PostSCFGGA      .... off
 Hybrid DFT is turned on
   Fraction HF Exchange ScalHFX         ....  0.420000
   Scaling of DF-GGA-X  ScalDFX         ....  0.580000
   Scaling of DF-GGA-C  ScalDFC         ....  1.000000
   Scaling of DF-LDA-C  ScalLDAC        ....  1.000000
   Perturbative correction              ....  0.000000
   Density functional embedding theory  .... OFF
 RI-approximation to the Coulomb term is turned on
   Number of AuxJ basis functions       .... 613
   RIJ-ON(X) (HFX calculated with O(N)) .... on
   Number of AuxJ basis functions       .... 613
   RIJ-COSX (HFX calculated with COS-X)).... on


General Settings:
 Integral files         IntName         .... 9_6_orca
 Hartree-Fock type      HFTyp           .... RHF
 Total Charge           Charge          ....    1
 Multiplicity           Mult            ....    1
 Number of Electrons    NEL             ....   82
 Basis Dimension        Dim             ....  175
 Nuclear Repulsion      ENuc            ....    581.3438803741 Eh

Convergence Acceleration:
 DIIS                   CNVDIIS         .... on
   Start iteration      DIISMaxIt       ....    12
   Startup error        DIISStart       ....  0.200000
   # of expansion vecs  DIISMaxEq       ....     5
   Bias factor          DIISBfac        ....   1.050
   Max. coefficient     DIISMaxC        ....  10.000
 Trust-Rad. Augm. Hess. CNVTRAH         .... auto
   Auto Start mean grad. ratio tolernc. ....  1.125000
   Auto Start start iteration           ....    20
   Auto Start num. interpolation iter.  ....    10
   Max. Number of Micro iterations      ....    16
   Max. Number of Macro iterations      .... Maxiter - #DIIS iter
   Number of Davidson start vectors     ....     2
   Converg. threshold I  (grad. norm)   ....   1.000e-05
   Converg. threshold II (energy diff.) ....   1.000e-08
   Grad. Scal. Fac. for Micro threshold ....   0.100
   Minimum threshold for Micro iter.    ....   0.010
   NR start threshold (gradient norm)   ....   0.001
   Initial trust radius                 ....   0.400
   Minimum AH scaling param. (alpha)    ....   1.000
   Maximum AH scaling param. (alpha)    .... 1000.000
   Orbital update algorithm             .... Taylor
   White noise on init. David. guess    .... on
   Maximum white noise                  ....   0.010
   Quad. conv. algorithm                .... NR
   COSX micro iterations for RIJONX calc.... off
 SOSCF                  CNVSOSCF        .... off
 Level Shifting         CNVShift        .... on
   Level shift para.    LevelShift      ....    0.2500
   Turn off err/grad.   ShiftErr        ....    0.0010
 Zerner damping         CNVZerner       .... off
 Static damping         CNVDamp         .... on
   Fraction old density DampFac         ....    0.7000
   Max. Damping (<1)    DampMax         ....    0.9800
   Min. Damping (>=0)   DampMin         ....    0.0000
   Turn off err/grad.   DampErr         ....    0.1000
 Fernandez-Rico         CNVRico         .... off

SCF Procedure:
 Maximum # iterations   MaxIter         ....   250
 SCF integral mode      SCFMode         .... Direct
   Integral package                     .... SHARK and LIBINT hybrid scheme
 Reset frequency        DirectResetFreq ....    20
 Integral Threshold     Thresh          ....  2.500e-11 Eh
 Primitive CutOff       TCut            ....  2.500e-12 Eh

Convergence Tolerance:
 Convergence Check Mode ConvCheckMode   .... Total+1el-Energy
 Convergence forced     ConvForced      .... 0
 Energy Change          TolE            ....  1.000e-08 Eh
 1-El. energy change                    ....  1.000e-05 Eh
 DIIS Error             TolErr          ....  5.000e-07


Diagonalization of the overlap matrix:
Smallest eigenvalue                        ... 1.429e-03
Time for diagonalization                   ...    0.010 sec
Threshold for overlap eigenvalues          ... 1.000e-08
Number of eigenvalues below threshold      ... 0
Time for construction of square roots      ...    0.002 sec
Total time needed                          ...    0.013 sec

--------------------------------
INITIAL GUESS: MINIMAL BASIS EHT
--------------------------------
The minimal basis has 70 functions
EHT matrix was diagonalized
Basis set overlap was calculated now projecting the orbitals
Using GuessMode=FMatrix for the initial guess
C*T matrix was formed
Effective Fockian was calculated
Effective Fockian was diagonalized
Initial density was built
                      ------------------
                      INITIAL GUESS DONE
                      ------------------
-------------------
DFT GRID GENERATION
-------------------

General Integration Accuracy     IntAcc      ... 4.159
Radial Grid Type                 RadialGrid  ... OptM3 with GC (2021)
Angular Grid (max. ang.)         AngularGrid ... 3 (Lebedev-194)
Angular grid pruning method      GridPruning ... 4 (adaptive)
Weight generation scheme         WeightScheme... Becke
Basis function cutoff            BFCut       ... 1.0000e-11
Integration weight cutoff        WCut        ... 1.0000e-14
Angular grids for H and He will be reduced by one unit
Partially contracted basis set               ... off
Rotationally invariant grid construction     ... off

Total number of grid points                  ...    48233
Total number of batches                      ...      764
Average number of points per batch           ...       63
Average number of grid points per atom       ...     2297
Time for grid setup =    0.447 sec

--------------------
COSX GRID GENERATION
--------------------

GRIDX 1
-------
General Integration Accuracy     IntAcc      ... 3.816
Radial Grid Type                 RadialGrid  ... OptM3 with GC (2021)
Angular Grid (max. ang.)         AngularGrid ... 1 (Lebedev-50)
Angular grid pruning method      GridPruning ... 4 (adaptive)
Weight generation scheme         WeightScheme... Becke
Basis function cutoff            BFCut       ... 1.0000e-11
Integration weight cutoff        WCut        ... 1.0000e-14
Angular grids for H and He will be reduced by one unit
Partially contracted basis set               ... on
Rotationally invariant grid construction     ... off

Total number of grid points                  ...    12285
Total number of batches                      ...      203
Average number of points per batch           ...       60
Average number of grid points per atom       ...      585
UseSFitting                                  ... on

GRIDX 2
-------
General Integration Accuracy     IntAcc      ... 4.020
Radial Grid Type                 RadialGrid  ... OptM3 with GC (2021)
Angular Grid (max. ang.)         AngularGrid ... 2 (Lebedev-110)
Angular grid pruning method      GridPruning ... 4 (adaptive)
Weight generation scheme         WeightScheme... Becke
Basis function cutoff            BFCut       ... 1.0000e-11
Integration weight cutoff        WCut        ... 1.0000e-14
Angular grids for H and He will be reduced by one unit
Partially contracted basis set               ... on
Rotationally invariant grid construction     ... off

Total number of grid points                  ...    25985
Total number of batches                      ...      419
Average number of points per batch           ...       62
Average number of grid points per atom       ...     1237
UseSFitting                                  ... on

GRIDX 3
-------
General Integration Accuracy     IntAcc      ... 4.338
Radial Grid Type                 RadialGrid  ... OptM3 with GC (2021)
Angular Grid (max. ang.)         AngularGrid ... 3 (Lebedev-194)
Angular grid pruning method      GridPruning ... 4 (adaptive)
Weight generation scheme         WeightScheme... Becke
Basis function cutoff            BFCut       ... 1.0000e-11
Integration weight cutoff        WCut        ... 1.0000e-14
Angular grids for H and He will be reduced by one unit
Partially contracted basis set               ... on
Rotationally invariant grid construction     ... off

Total number of grid points                  ...    56978
Total number of batches                      ...      900
Average number of points per batch           ...       63
Average number of grid points per atom       ...     2713
UseSFitting                                  ... on

Time for X-Grid setup             =    1.217 sec

--------------
SCF ITERATIONS
--------------
ITER       Energy         Delta-E        Max-DP      RMS-DP      [F,P]     Damp
               ***  Starting incremental Fock matrix formation  ***
  0  -1102.8187998889   0.000000000000 0.12985243  0.00446498  0.4572058 0.7000
  1  -1103.3169661310  -0.498166242045 0.10696607  0.00318205  0.3144107 0.7000
  2  -1103.6502203184  -0.333254187453 0.08071017  0.00234763  0.2175478 0.7000
                               ***Turning on DIIS***
  3  -1103.8962626843  -0.246042365878 0.05871923  0.00175096  0.1528601 0.7000
  4  -1104.0738262700  -0.177563585669 0.04227805  0.00131577  0.1081227 0.7000
  5  -1104.2001395643  -0.126313294372 0.10079773  0.00322751  0.0754781 0.0000
  6  -1104.5031334380  -0.302993873685 0.01357200  0.00023113  0.0079070 0.0000
  7  -1104.5038492970  -0.000715859019 0.01145350  0.00015949  0.0052045 0.0000
  8  -1104.5041297457  -0.000280448700 0.00833666  0.00011900  0.0037617 0.0000
  9  -1104.5042708429  -0.000141097144 0.00517015  0.00007074  0.0021005 0.0000
 10  -1104.5043166511  -0.000045808225 0.00272027  0.00003898  0.0012432 0.0000
 11  -1104.5043315942  -0.000014943065 0.00234274  0.00004023  0.0006703 0.0000
               *** Restarting incremental Fock matrix formation ***
                                   *** Resetting DIIS ***
 12  -1104.5043351131  -0.000003518926 0.00035578  0.00001722  0.0001802 0.0000
 13  -1104.5043355544  -0.000000441337 0.00025872  0.00000551  0.0002669 0.0000
 14  -1104.5043358274  -0.000000272956 0.00007334  0.00000212  0.0000815 0.0000
 15  -1104.5043358618  -0.000000034380 0.00003034  0.00000080  0.0000254 0.0000
 16  -1104.5043358775  -0.000000015708 0.00001022  0.00000032  0.0000102 0.0000
 17  -1104.5043358724   0.000000005032 0.00000388  0.00000013  0.0000024 0.0000
                            ***DIIS convergence achieved***

               *****************************************************
               *                     SUCCESS                       *
               *           SCF CONVERGED AFTER  18 CYCLES          *
               *****************************************************

Old exchange energy                            =    -36.293002601 Eh
New exchange energy                            =    -36.292976392 Eh
Exchange energy change after final integration =      0.000026208 Eh
Total energy after final integration           =  -1104.504309650 Eh
Final COS-X integration done in                =    11.154 sec

----------------
TOTAL SCF ENERGY
----------------

Total Energy       :        -1104.50430965 Eh          -30055.09024 eV

Components:
Nuclear Repulsion  :          581.34388037 Eh           15819.17122 eV
Electronic Energy  :        -1685.84819002 Eh          -45874.26145 eV
One Electron Energy:        -2646.79955590 Eh          -72023.07750 eV
Two Electron Energy:          960.95136587 Eh           26148.81605 eV
Max COSX asymmetry :            0.00000370 Eh               0.00010 eV

Virial components:
Potential Energy   :        -2205.56704526 Eh          -60016.53048 eV
Kinetic Energy     :         1101.06273561 Eh           29961.44025 eV
Virial Ratio       :            2.00312568


DFT components:
N(Alpha)           :       40.999933464145 electrons
N(Beta)            :       40.999933464145 electrons
N(Total)           :       81.999866928290 electrons
E(X)               :      -48.386703648130 Eh       
E(C)               :       -3.765086991038 Eh       
E(XC)              :      -52.151790639168 Eh       
DFET-embed. en.    :        0.000000000000 Eh       

---------------
SCF CONVERGENCE
---------------

  Last Energy change         ...    1.4338e-08  Tolerance :   1.0000e-08
  Last MAX-Density change    ...    0.0000e+00  Tolerance :   1.0000e-07
  Last RMS-Density change    ...    0.0000e+00  Tolerance :   5.0000e-09
  Last DIIS Error            ...    9.6249e-07  Tolerance :   5.0000e-07

             **** THE GBW FILE WAS UPDATED (9_6_orca.gbw) ****
             **** DENSITY 9_6_orca.scfp WAS UPDATED ****
             **** ENERGY FILE WAS UPDATED (9_6_orca.en.tmp) ****
             **** THE GBW FILE WAS UPDATED (9_6_orca.gbw) ****
             **** DENSITY 9_6_orca.scfp WAS UPDATED ****
----------------
ORBITAL ENERGIES
----------------

  NO   OCC          E(Eh)            E(eV) 
   0   2.0000    -162.886628     -4432.3705 
   1   2.0000     -18.200593      -495.2633 
   2   2.0000     -15.037687      -409.1963 
   3   2.0000     -15.035443      -409.1352 
   4   2.0000     -15.034315      -409.1045 
   5   2.0000     -14.871338      -404.6697 
   6   2.0000     -14.869751      -404.6265 
   7   2.0000     -10.652283      -289.8633 
   8   2.0000     -10.636830      -289.4429 
   9   2.0000     -10.635557      -289.4082 
  10   2.0000     -10.632837      -289.3342 
  11   2.0000     -10.619824      -288.9801 
  12   2.0000     -10.522380      -286.3285 
  13   2.0000      -2.411076       -65.6087 
  14   2.0000      -1.560989       -42.4767 
  15   2.0000      -1.551663       -42.2229 
  16   2.0000      -1.549476       -42.1634 
  17   2.0000      -1.318250       -35.8714 
  18   2.0000      -1.194646       -32.5080 
  19   2.0000      -1.033258       -28.1164 
  20   2.0000      -0.989925       -26.9372 
  21   2.0000      -0.931974       -25.3603 
  22   2.0000      -0.872796       -23.7500 
  23   2.0000      -0.849463       -23.1151 
  24   2.0000      -0.811302       -22.0766 
  25   2.0000      -0.756887       -20.5959 
  26   2.0000      -0.711470       -19.3601 
  27   2.0000      -0.680717       -18.5233 
  28   2.0000      -0.664769       -18.0893 
  29   2.0000      -0.661994       -18.0138 
  30   2.0000      -0.658020       -17.9056 
  31   2.0000      -0.614590       -16.7238 
  32   2.0000      -0.600714       -16.3462 
  33   2.0000      -0.598407       -16.2835 
  34   2.0000      -0.576545       -15.6886 
  35   2.0000      -0.563170       -15.3246 
  36   2.0000      -0.523931       -14.2569 
  37   2.0000      -0.492363       -13.3979 
  38   2.0000      -0.446612       -12.1529 
  39   2.0000      -0.444249       -12.0886 
  40   2.0000      -0.437621       -11.9083 
  41   0.0000      -0.186303        -5.0696 
  42   0.0000      -0.177472        -4.8292 
  43   0.0000      -0.165331        -4.4989 
  44   0.0000      -0.151133        -4.1125 
  45   0.0000      -0.145292        -3.9536 
  46   0.0000      -0.131812        -3.5868 
  47   0.0000      -0.088722        -2.4143 
  48   0.0000      -0.081693        -2.2230 
  49   0.0000      -0.060050        -1.6340 
  50   0.0000      -0.010804        -0.2940 
  51   0.0000       0.010448         0.2843 
  52   0.0000       0.022248         0.6054 
  53   0.0000       0.035423         0.9639 
  54   0.0000       0.048735         1.3261 
  55   0.0000       0.053211         1.4480 
  56   0.0000       0.055474         1.5095 
  57   0.0000       0.064938         1.7671 
  58   0.0000       0.067430         1.8349 
  59   0.0000       0.074606         2.0301 
  60   0.0000       0.081846         2.2272 
  61   0.0000       0.091204         2.4818 
  62   0.0000       0.096626         2.6293 
  63   0.0000       0.120201         3.2708 
  64   0.0000       0.131417         3.5760 
  65   0.0000       0.137950         3.7538 
  66   0.0000       0.167563         4.5596 
  67   0.0000       0.183723         4.9994 
  68   0.0000       0.215737         5.8705 
  69   0.0000       0.223000         6.0681 
  70   0.0000       0.302534         8.2324 
  71   0.0000       0.315602         8.5880 
  72   0.0000       0.329406         8.9636 
  73   0.0000       0.343279         9.3411 
  74   0.0000       0.359534         9.7834 
  75   0.0000       0.373535        10.1644 
  76   0.0000       0.375862        10.2277 
  77   0.0000       0.400911        10.9093 
  78   0.0000       0.406882        11.0718 
  79   0.0000       0.427110        11.6223 
  80   0.0000       0.432537        11.7699 
  81   0.0000       0.445412        12.1203 
  82   0.0000       0.451097        12.2750 
  83   0.0000       0.476290        12.9605 
  84   0.0000       0.499262        13.5856 
  85   0.0000       0.506686        13.7876 
  86   0.0000       0.526564        14.3285 
  87   0.0000       0.538111        14.6428 
  88   0.0000       0.551104        14.9963 
  89   0.0000       0.573346        15.6015 
  90   0.0000       0.577748        15.7213 
  91   0.0000       0.595751        16.2112 
  92   0.0000       0.647541        17.6205 
  93   0.0000       0.662133        18.0176 
  94   0.0000       0.686133        18.6706 
  95   0.0000       0.735160        20.0047 
  96   0.0000       0.755084        20.5469 
  97   0.0000       0.775901        21.1133 
  98   0.0000       0.778282        21.1781 
  99   0.0000       0.798706        21.7339 
 100   0.0000       0.807844        21.9825 
 101   0.0000       0.832832        22.6625 
 102   0.0000       0.853453        23.2236 
 103   0.0000       0.854633        23.2557 
 104   0.0000       0.863742        23.5036 
 105   0.0000       0.877345        23.8738 
 106   0.0000       0.901630        24.5346 
 107   0.0000       0.903864        24.5954 
 108   0.0000       0.908241        24.7145 
 109   0.0000       0.930725        25.3263 
 110   0.0000       0.941366        25.6159 
 111   0.0000       0.959447        26.1079 
 112   0.0000       0.967931        26.3388 
 113   0.0000       0.975602        26.5475 
 114   0.0000       0.982681        26.7401 
 115   0.0000       1.017832        27.6966 
 116   0.0000       1.059201        28.8223 
 117   0.0000       1.081395        29.4263 
 118   0.0000       1.097946        29.8766 
 119   0.0000       1.141851        31.0714 
 120   0.0000       1.162585        31.6355 
 121   0.0000       1.183147        32.1951 
 122   0.0000       1.224419        33.3181 
 123   0.0000       1.234838        33.6017 
 124   0.0000       1.248206        33.9654 
 125   0.0000       1.292885        35.1812 
 126   0.0000       1.325271        36.0625 
 127   0.0000       1.345120        36.6026 
 128   0.0000       1.446766        39.3685 
 129   0.0000       1.485372        40.4190 
 130   0.0000       1.509016        41.0624 
 131   0.0000       1.554223        42.2925 
 132   0.0000       1.713629        46.6302 
 133   0.0000       1.743797        47.4511 
 134   0.0000       1.778711        48.4012 
 135   0.0000       1.810641        49.2700 
 136   0.0000       1.836017        49.9606 
 137   0.0000       1.850887        50.3652 
 138   0.0000       1.863562        50.7101 
 139   0.0000       1.868390        50.8415 
 140   0.0000       1.897821        51.6423 
 141   0.0000       1.950081        53.0644 
 142   0.0000       1.954707        53.1903 
 143   0.0000       1.982903        53.9575 
 144   0.0000       2.032598        55.3098 
 145   0.0000       2.050696        55.8023 
 146   0.0000       2.076530        56.5053 
 147   0.0000       2.119353        57.6705 
 148   0.0000       2.141580        58.2753 
 149   0.0000       2.150624        58.5214 
 150   0.0000       2.169392        59.0321 
 151   0.0000       2.201255        59.8992 
 152   0.0000       2.231660        60.7266 
 153   0.0000       2.248389        61.1818 
 154   0.0000       2.254802        61.3563 
 155   0.0000       2.269325        61.7515 
 156   0.0000       2.357955        64.1632 
 157   0.0000       2.365741        64.3751 
 158   0.0000       2.422818        65.9282 
 159   0.0000       2.509967        68.2997 
 160   0.0000       2.513385        68.3927 
 161   0.0000       2.652966        72.1909 
 162   0.0000       2.697414        73.4004 
 163   0.0000       2.731367        74.3243 
 164   0.0000       2.941549        80.0436 
 165   0.0000       3.003985        81.7426 
 166   0.0000       3.062373        83.3314 
 167   0.0000      13.348178       363.2224 
 168   0.0000      13.562855       369.0641 
 169   0.0000      13.633093       370.9753 
 170   0.0000      13.652104       371.4926 
 171   0.0000      13.764146       374.5415 
 172   0.0000      13.969700       380.1349 
 173   0.0000      19.098396       519.6938 
 174   0.0000      19.296586       525.0868 

                    ********************************
                    * MULLIKEN POPULATION ANALYSIS *
                    ********************************

-----------------------
MULLIKEN ATOMIC CHARGES
-----------------------
   0 Sc:    0.809532
   1 C :    0.187215
   2 N :   -0.422751
   3 C :   -0.060488
   4 C :   -0.063158
   5 N :   -0.403569
   6 C :   -0.549386
   7 H :    0.292655
   8 H :    0.272920
   9 H :    0.269370
  10 C :   -0.524162
  11 H :    0.266296
  12 H :    0.278514
  13 H :    0.275856
  14 H :    0.306426
  15 H :    0.305084
  16 C :   -1.038617
  17 H :    0.305881
  18 H :    0.260235
  19 H :    0.246728
  20 H :   -0.014583
Sum of atomic charges:    1.0000000

--------------------------------
MULLIKEN REDUCED ORBITAL CHARGES
--------------------------------
  0 Scs       :     6.497763  s :     6.497763
      pz      :     4.191585  p :    12.399295
      px      :     4.074258
      py      :     4.133452
      dz2     :     0.201253  d :     1.259659
      dxz     :     0.222541
      dyz     :     0.330076
      dx2y2   :     0.178389
      dxy     :     0.327400
      f0      :     0.007765  f :     0.033751
      f+1     :     0.003128
      f-1     :     0.004190
      f+2     :     0.002829
      f-2     :     0.007657
      f+3     :     0.004189
      f-3     :     0.003993
  1 C s       :     3.220634  s :     3.220634
      pz      :     1.007958  p :     2.525748
      px      :     0.826557
      py      :     0.691233
      dz2     :     0.007880  d :     0.066403
      dxz     :     0.010918
      dyz     :     0.023318
      dx2y2   :     0.013360
      dxy     :     0.010927
  2 N s       :     3.539003  s :     3.539003
      pz      :     1.208703  p :     3.831257
      px      :     1.377230
      py      :     1.245323
      dz2     :     0.012413  d :     0.052491
      dxz     :     0.008456
      dyz     :     0.013545
      dx2y2   :     0.009397
      dxy     :     0.008680
  3 C s       :     3.164446  s :     3.164446
      pz      :     0.850881  p :     2.841933
      px      :     1.040450
      py      :     0.950602
      dz2     :     0.014617  d :     0.054108
      dxz     :     0.010359
      dyz     :     0.013209
      dx2y2   :     0.006639
      dxy     :     0.009284
  4 C s       :     3.158804  s :     3.158804
      pz      :     0.861171  p :     2.849589
      px      :     0.950165
      py      :     1.038253
      dz2     :     0.014011  d :     0.054765
      dxz     :     0.010577
      dyz     :     0.014076
      dx2y2   :     0.010072
      dxy     :     0.006028
  5 N s       :     3.528018  s :     3.528018
      pz      :     1.196689  p :     3.822986
      px      :     1.379927
      py      :     1.246370
      dz2     :     0.012453  d :     0.052565
      dxz     :     0.010095
      dyz     :     0.012216
      dx2y2   :     0.008628
      dxy     :     0.009173
  6 C s       :     3.380222  s :     3.380222
      pz      :     1.171813  p :     3.119932
      px      :     1.033065
      py      :     0.915053
      dz2     :     0.009558  d :     0.049232
      dxz     :     0.003508
      dyz     :     0.012050
      dx2y2   :     0.012608
      dxy     :     0.011508
  7 H s       :     0.707345  s :     0.707345
  8 H s       :     0.727080  s :     0.727080
  9 H s       :     0.730630  s :     0.730630
 10 C s       :     3.371762  s :     3.371762
      pz      :     1.150135  p :     3.103879
      px      :     1.130644
      py      :     0.823100
      dz2     :     0.010651  d :     0.048521
      dxz     :     0.003879
      dyz     :     0.009738
      dx2y2   :     0.015195
      dxy     :     0.009058
 11 H s       :     0.733704  s :     0.733704
 12 H s       :     0.721486  s :     0.721486
 13 H s       :     0.724144  s :     0.724144
 14 H s       :     0.693574  s :     0.693574
 15 H s       :     0.694916  s :     0.694916
 16 C s       :     3.462570  s :     3.462570
      pz      :     1.147148  p :     3.553765
      px      :     1.171153
      py      :     1.235464
      dz2     :     0.004180  d :     0.022283
      dxz     :     0.009686
      dyz     :     0.001049
      dx2y2   :     0.002161
      dxy     :     0.005207
 17 H s       :     0.694119  s :     0.694119
 18 H s       :     0.739765  s :     0.739765
 19 H s       :     0.753272  s :     0.753272
 20 H s       :     1.014583  s :     1.014583


                     *******************************
                     * LOEWDIN POPULATION ANALYSIS *
                     *******************************

----------------------
LOEWDIN ATOMIC CHARGES
----------------------
   0 Sc:    0.498728
   1 C :   -0.042813
   2 N :    0.005203
   3 C :   -0.078646
   4 C :   -0.080211
   5 N :   -0.003527
   6 C :   -0.240701
   7 H :    0.164453
   8 H :    0.153928
   9 H :    0.148824
  10 C :   -0.236490
  11 H :    0.154632
  12 H :    0.155704
  13 H :    0.153742
  14 H :    0.172439
  15 H :    0.170593
  16 C :   -0.574869
  17 H :    0.188601
  18 H :    0.159696
  19 H :    0.170910
  20 H :   -0.040195

-------------------------------
LOEWDIN REDUCED ORBITAL CHARGES
-------------------------------
  0 Scs       :     6.473040  s :     6.473040
      pz      :     4.243449  p :    12.480786
      px      :     4.079420
      py      :     4.157917
      dz2     :     0.272199  d :     1.466083
      dxz     :     0.246413
      dyz     :     0.378159
      dx2y2   :     0.206410
      dxy     :     0.362903
      f0      :     0.018384  f :     0.081363
      f+1     :     0.007850
      f-1     :     0.010944
      f+2     :     0.007266
      f-2     :     0.015963
      f+3     :     0.010813
      f-3     :     0.010143
  1 C s       :     2.957951  s :     2.957951
      pz      :     1.163582  p :     2.940064
      px      :     0.907200
      py      :     0.869282
      dz2     :     0.016252  d :     0.144797
      dxz     :     0.021159
      dyz     :     0.050235
      dx2y2   :     0.030350
      dxy     :     0.026800
  2 N s       :     3.049126  s :     3.049126
      pz      :     1.234920  p :     3.820254
      px      :     1.342299
      py      :     1.243036
      dz2     :     0.031596  d :     0.125417
      dxz     :     0.020783
      dyz     :     0.034214
      dx2y2   :     0.019516
      dxy     :     0.019309
  3 C s       :     2.887313  s :     2.887313
      pz      :     0.963115  p :     3.071046
      px      :     1.057196
      py      :     1.050736
      dz2     :     0.034038  d :     0.120287
      dxz     :     0.020741
      dyz     :     0.031081
      dx2y2   :     0.014083
      dxy     :     0.020344
  4 C s       :     2.886240  s :     2.886240
      pz      :     0.972289  p :     3.071984
      px      :     1.011558
      py      :     1.088137
      dz2     :     0.032473  d :     0.121987
      dxz     :     0.023751
      dyz     :     0.030168
      dx2y2   :     0.021189
      dxy     :     0.014404
  5 N s       :     3.043876  s :     3.043876
      pz      :     1.237458  p :     3.832624
      px      :     1.340462
      py      :     1.254703
      dz2     :     0.032053  d :     0.127028
      dxz     :     0.024008
      dyz     :     0.032689
      dx2y2   :     0.018301
      dxy     :     0.019978
  6 C s       :     2.938238  s :     2.938238
      pz      :     1.145245  p :     3.208088
      px      :     1.071804
      py      :     0.991039
      dz2     :     0.017333  d :     0.094375
      dxz     :     0.005961
      dyz     :     0.022582
      dx2y2   :     0.025033
      dxy     :     0.023466
  7 H s       :     0.835547  s :     0.835547
  8 H s       :     0.846072  s :     0.846072
  9 H s       :     0.851176  s :     0.851176
 10 C s       :     2.941410  s :     2.941410
      pz      :     1.138762  p :     3.202050
      px      :     1.131238
      py      :     0.932051
      dz2     :     0.019070  d :     0.093029
      dxz     :     0.006007
      dyz     :     0.019574
      dx2y2   :     0.029825
      dxy     :     0.018553
 11 H s       :     0.845368  s :     0.845368
 12 H s       :     0.844296  s :     0.844296
 13 H s       :     0.846258  s :     0.846258
 14 H s       :     0.827561  s :     0.827561
 15 H s       :     0.829407  s :     0.829407
 16 C s       :     2.986657  s :     2.986657
      pz      :     1.127171  p :     3.548947
      px      :     1.164138
      py      :     1.257638
      dz2     :     0.007075  d :     0.039265
      dxz     :     0.015680
      dyz     :     0.002406
      dx2y2   :     0.004364
      dxy     :     0.009739
 17 H s       :     0.811399  s :     0.811399
 18 H s       :     0.840304  s :     0.840304
 19 H s       :     0.829090  s :     0.829090
 20 H s       :     1.040195  s :     1.040195


                      *****************************
                      * MAYER POPULATION ANALYSIS *
                      *****************************

  NA   - Mulliken gross atomic population
  ZA   - Total nuclear charge
  QA   - Mulliken gross atomic charge
  VA   - Mayer's total valence
  BVA  - Mayer's bonded valence
  FA   - Mayer's free valence

  ATOM       NA         ZA         QA         VA         BVA        FA
  0 Sc    20.1905    21.0000     0.8095     2.8298     2.8298     0.0000
  1 C      5.8128     6.0000     0.1872     3.1906     3.1906    -0.0000
  2 N      7.4228     7.0000    -0.4228     3.4183     3.4183     0.0000
  3 C      6.0605     6.0000    -0.0605     3.7451     3.7451     0.0000
  4 C      6.0632     6.0000    -0.0632     3.7381     3.7381    -0.0000
  5 N      7.4036     7.0000    -0.4036     3.3724     3.3724    -0.0000
  6 C      6.5494     6.0000    -0.5494     3.5974     3.5974    -0.0000
  7 H      0.7073     1.0000     0.2927     0.8910     0.8910    -0.0000
  8 H      0.7271     1.0000     0.2729     0.8828     0.8828     0.0000
  9 H      0.7306     1.0000     0.2694     0.8852     0.8852    -0.0000
 10 C      6.5242     6.0000    -0.5242     3.6075     3.6075     0.0000
 11 H      0.7337     1.0000     0.2663     0.8993     0.8993    -0.0000
 12 H      0.7215     1.0000     0.2785     0.8862     0.8862     0.0000
 13 H      0.7241     1.0000     0.2759     0.8855     0.8855     0.0000
 14 H      0.6936     1.0000     0.3064     0.8776     0.8776    -0.0000
 15 H      0.6949     1.0000     0.3051     0.8773     0.8773    -0.0000
 16 C      7.0386     6.0000    -1.0386     3.6623     3.6623     0.0000
 17 H      0.6941     1.0000     0.3059     0.8761     0.8761     0.0000
 18 H      0.7398     1.0000     0.2602     0.8970     0.8970     0.0000
 19 H      0.7533     1.0000     0.2467     0.8918     0.8918    -0.0000
 20 H      1.0146     1.0000    -0.0146     0.9966     0.9966    -0.0000

  Mayer bond orders larger than 0.100000
B(  0-Sc,  1-C ) :   0.6271 B(  0-Sc, 16-C ) :   1.0284 B(  0-Sc, 20-H ) :   0.9743 
B(  1-C ,  2-N ) :   1.2521 B(  1-C ,  5-N ) :   1.2189 B(  2-N ,  3-C ) :   1.1503 
B(  2-N , 10-C ) :   0.9080 B(  3-C ,  4-C ) :   1.6415 B(  3-C , 14-H ) :   0.8763 
B(  4-C ,  5-N ) :   1.1334 B(  4-C , 15-H ) :   0.8764 B(  5-N ,  6-C ) :   0.9097 
B(  6-C ,  7-H ) :   0.8998 B(  6-C ,  8-H ) :   0.8822 B(  6-C ,  9-H ) :   0.8940 
B( 10-C , 11-H ) :   0.9073 B( 10-C , 12-H ) :   0.8957 B( 10-C , 13-H ) :   0.8951 
B( 16-C , 17-H ) :   0.8639 B( 16-C , 18-H ) :   0.8840 B( 16-C , 19-H ) :   0.8582 



------------------
HIRSHFELD ANALYSIS
------------------

Total integrated alpha density =     40.999933465
Total integrated beta density  =     40.999933465

  ATOM     CHARGE      SPIN    
   0 Sc   0.805092    0.000000
   1 C   -0.068200    0.000000
   2 N   -0.008141    0.000000
   3 C    0.019203    0.000000
   4 C    0.018708    0.000000
   5 N   -0.017568    0.000000
   6 C    0.017602    0.000000
   7 H    0.073903    0.000000
   8 H    0.060136    0.000000
   9 H    0.061302    0.000000
  10 C    0.015735    0.000000
  11 H    0.065282    0.000000
  12 H    0.065566    0.000000
  13 H    0.062805    0.000000
  14 H    0.090904    0.000000
  15 H    0.089232    0.000000
  16 C   -0.278851    0.000000
  17 H    0.055237    0.000000
  18 H    0.038696    0.000000
  19 H    0.037514    0.000000
  20 H   -0.204025    0.000000

  TOTAL   1.000133    0.000000

-------
TIMINGS
-------

Total SCF time: 0 days 0 hours 1 min 30 sec 

Total time                  ....      90.043 sec
Sum of individual times     ....      89.778 sec  ( 99.7%)

Fock matrix formation       ....      87.667 sec  ( 97.4%)
  Split-RI-J                ....       8.015 sec  (  9.1% of F)
  Chain of spheres X        ....      69.951 sec  ( 79.8% of F)
  XC integration            ....       9.692 sec  ( 11.1% of F)
    Basis function eval.    ....       4.163 sec  ( 42.9% of XC)
    Density eval.           ....       1.983 sec  ( 20.5% of XC)
    XC-Functional eval.     ....       1.009 sec  ( 10.4% of XC)
    XC-Potential eval.      ....       2.179 sec  ( 22.5% of XC)
Diagonalization             ....       0.084 sec  (  0.1%)
Density matrix formation    ....       0.009 sec  (  0.0%)
Population analysis         ....       0.307 sec  (  0.3%)
Initial guess               ....       0.019 sec  (  0.0%)
Orbital Transformation      ....       0.000 sec  (  0.0%)
Orbital Orthonormalization  ....       0.000 sec  (  0.0%)
DIIS solution               ....       0.029 sec  (  0.0%)
Grid generation             ....       1.663 sec  (  1.8%)

Maximum memory used throughout the entire SCF-calculation: 97.1 MB


-------------------------------------------------------------------------------
                          DFT DISPERSION CORRECTION                            
                                                                               
                              DFTD3 V3.1  Rev 1                                
                          USING Becke-Johnson damping                          
-------------------------------------------------------------------------------
The PBEh-3c composite method is recognized
Using three-body term ABC
Active option DFTDOPT                   ...         4   

molecular C6(AA) [au] = 5404.966929 


            DFT-D V3
 parameters
 s6 scaling factor         :     1.0000 
 a1 scaling factor         :     0.4860 
 s8 scaling factor         :     0.0000 
 a2 scaling factor         :     4.5000 
 Damping factor alpha9(ATM):    16.0000 
 ad hoc parameters k1-k3   :    16.0000     1.3333    -4.0000 

 Edisp/kcal,au: -6.971787267038  -0.011110249027 
 E6   /kcal   :  -7.008239547 
 E8   /kcal   :  -0.000000000 
 E6(ABC)      :   0.036452279 
 % E8         :   0.000000000 
 % E6(ABC)    :  -0.522854156 

-------------------------   ----------------
Dispersion correction           -0.011110249
-------------------------   ----------------

------------------   -----------------
gCP correction             0.038279190
------------------   -----------------

-------------------------   --------------------
FINAL SINGLE POINT ENERGY     -1104.477140709026
-------------------------   --------------------

------------------------------------------------------------------------------
                         ORCA SCF GRADIENT CALCULATION
------------------------------------------------------------------------------

 ... reading COSX grid (gridx3)
Gradient of the Kohn-Sham DFT energy:
Kohn-Sham wavefunction type      ... RKS
Hartree-Fock exchange scaling    ...    0.420
Number of operators              ...    1
Number of atoms                  ...   21
Basis set dimensions             ...  175
Integral neglect threshold       ... 2.5e-11
Integral primitive cutoff        ... 2.5e-12
SHARK Integral package           ... ON

Nuc. rep. gradient       (SHARK) ... done (  0.0 sec)
HCore & Overlap gradient (SHARK) ... done (  0.3 sec)
RI-J gradient            (SHARK) ... done (  1.7 sec)
COSX-gradient                    ... done ( 13.5 sec)
Exchange-correlation gradient    ... done
Dispersion correction            ... done
gCP correction                   ... done

------------------
CARTESIAN GRADIENT
------------------

   1   Sc  :    0.003218217    0.016769470    0.000608515
   2   C   :    0.002205790   -0.002402365   -0.000625446
   3   N   :    0.002590416   -0.001846468    0.000532732
   4   C   :    0.004846624    0.014292647   -0.000532650
   5   C   :   -0.003727074   -0.012181819   -0.004116302
   6   N   :    0.000915759   -0.001682961   -0.004755282
   7   C   :   -0.000909603    0.000328640    0.003709215
   8   H   :    0.000832036   -0.002549037    0.000040782
   9   H   :   -0.000640508   -0.002250812   -0.003095883
  10   H   :    0.000530565    0.000986767   -0.000643341
  11   C   :   -0.000622440    0.000421873    0.002452556
  12   H   :   -0.000877369   -0.001035245   -0.000219800
  13   H   :   -0.000165512   -0.001170974   -0.000249380
  14   H   :   -0.000341208   -0.000336191    0.001070157
  15   H   :   -0.005636808   -0.004543354    0.005908605
  16   H   :   -0.000906078    0.005589431    0.006389379
  17   C   :    0.001912708   -0.000877589   -0.001453569
  18   H   :   -0.001943631    0.001310875    0.002788497
  19   H   :   -0.003673446   -0.009113235    0.000512723
  20   H   :    0.005275458   -0.006704002   -0.004619403
  21   H   :   -0.002857509    0.006988042   -0.003485834

Difference to translation invariance:
           :    0.0000263874   -0.0000063080    0.0002162718

Difference to rotation invariance:
           :    0.0028260521    0.0001521727   -0.0017063161

Norm of the cartesian gradient     ...    0.0351704584
RMS gradient                       ...    0.0044310613
MAX gradient                       ...    0.0167694698

-------
TIMINGS
-------

Total SCF gradient time            ...       19.178 sec

One electron gradient       ....       0.274 sec  (  1.4%)
RI-J Coulomb gradient       ....       1.666 sec  (  8.7%)
COSX gradient               ....      13.547 sec  ( 70.6%)
XC gradient                 ....       3.060 sec  ( 16.0%)

Maximum memory used throughout the entire SCFGRAD-calculation: 69.0 MB

                            ***************************************
                            *     ORCA property calculations      *
                            ***************************************

                                    ---------------------
                                    Active property flags
                                    ---------------------
   (+) Dipole Moment


------------------------------------------------------------------------------
                       ORCA ELECTRIC PROPERTIES CALCULATION
------------------------------------------------------------------------------

Dipole Moment Calculation                       ... on
Quadrupole Moment Calculation                   ... off
Polarizability Calculation                      ... off
GBWName                                         ... 9_6_orca.gbw
Electron density                                ... 9_6_orca.scfp
The origin for moment calculation is the CENTER OF MASS  = ( 0.434405, -0.277765 -0.410815)

-------------
DIPOLE MOMENT
-------------
                                X             Y             Z
Electronic contribution:      6.30143      -3.25752      -4.33537
Nuclear contribution   :     -4.98125       3.07403       4.99871
                        -----------------------------------------
Total Dipole Moment    :      1.32019      -0.18348       0.66334
                        -----------------------------------------
Magnitude (a.u.)       :      1.48882
Magnitude (Debye)      :      3.78427



--------------------
Rotational spectrum 
--------------------
 
Rotational constants in cm-1:     0.059861     0.029051     0.021446 
Rotational constants in MHz :  1794.589855   870.919379   642.934986 

 Dipole components along the rotational axes: 
x,y,z [a.u.] :     0.373757     0.518756    -1.344535 
x,y,z [Debye]:     0.950014     1.318573    -3.417536 

 

Timings for individual modules:

Sum of individual times         ...      109.689 sec (=   1.828 min)
GTO integral calculation        ...        0.414 sec (=   0.007 min)   0.4 %
SCF iterations                  ...       90.071 sec (=   1.501 min)  82.1 %
SCF Gradient evaluation         ...       19.204 sec (=   0.320 min)  17.5 %
                             ****ORCA TERMINATED NORMALLY****
TOTAL RUN TIME: 0 days 0 hours 1 minutes 50 seconds 307 msec
