
                                 *****************
                                 * O   R   C   A *
                                 *****************

                                            #,                                       
                                            ###                                      
                                            ####                                     
                                            #####                                    
                                            ######                                   
                                           ########,                                 
                                     ,,################,,,,,                         
                               ,,#################################,,                 
                          ,,##########################################,,             
                       ,#########################################, ''#####,          
                    ,#############################################,,   '####,        
                  ,##################################################,,,,####,       
                ,###########''''           ''''###############################       
              ,#####''   ,,,,##########,,,,          '''####'''          '####       
            ,##' ,,,,###########################,,,                        '##       
           ' ,,###''''                  '''############,,,                           
         ,,##''                                '''############,,,,        ,,,,,,###''
      ,#''                                            '''#######################'''  
     '                                                          ''''####''''         
             ,#######,   #######,   ,#######,      ##                                
            ,#'     '#,  ##    ##  ,#'     '#,    #''#        ######   ,####,        
            ##       ##  ##   ,#'  ##            #'  '#       #        #'  '#        
            ##       ##  #######   ##           ,######,      #####,   #    #        
            '#,     ,#'  ##    ##  '#,     ,#' ,#      #,         ##   #,  ,#        
             '#######'   ##     ##  '#######'  #'      '#     #####' # '####'        



                  #######################################################
                  #                        -***-                        #
                  #          Department of theory and spectroscopy      #
                  #    Directorship and core code : Frank Neese         #
                  #        Max Planck Institute fuer Kohlenforschung    #
                  #                Kaiser Wilhelm Platz 1               #
                  #                 D-45470 Muelheim/Ruhr               #
                  #                      Germany                        #
                  #                                                     #
                  #                  All rights reserved                #
                  #                        -***-                        #
                  #######################################################


                         Program Version 5.0.4 -  RELEASE  -


 With contributions from (in alphabetic order):
   Daniel Aravena         : Magnetic Suceptibility
   Michael Atanasov       : Ab Initio Ligand Field Theory (pilot matlab implementation)
   Alexander A. Auer      : GIAO ZORA, VPT2 properties, NMR spectrum
   Ute Becker             : Parallelization
   Giovanni Bistoni       : ED, misc. LED, open-shell LED, HFLD
   Martin Brehm           : Molecular dynamics
   Dmytro Bykov           : SCF Hessian
   Vijay G. Chilkuri      : MRCI spin determinant printing, contributions to CSF-ICE
   Dipayan Datta          : RHF DLPNO-CCSD density
   Achintya Kumar Dutta   : EOM-CC, STEOM-CC
   Dmitry Ganyushin       : Spin-Orbit,Spin-Spin,Magnetic field MRCI
   Miquel Garcia          : C-PCM and meta-GGA Hessian, CC/C-PCM, Gaussian charge scheme
   Yang Guo               : DLPNO-NEVPT2, F12-NEVPT2, CIM, IAO-localization
   Andreas Hansen         : Spin unrestricted coupled pair/coupled cluster methods
   Benjamin Helmich-Paris : MC-RPA, TRAH-SCF, COSX integrals
   Lee Huntington         : MR-EOM, pCC
   Robert Izsak           : Overlap fitted RIJCOSX, COSX-SCS-MP3, EOM
   Marcus Kettner         : VPT2
   Christian Kollmar      : KDIIS, OOCD, Brueckner-CCSD(T), CCSD density, CASPT2, CASPT2-K
   Simone Kossmann        : Meta GGA functionals, TD-DFT gradient, OOMP2, MP2 Hessian
   Martin Krupicka        : Initial AUTO-CI
   Lucas Lang             : DCDCAS
   Marvin Lechner         : AUTO-CI (C++ implementation), FIC-MRCC
   Dagmar Lenk            : GEPOL surface, SMD
   Dimitrios Liakos       : Extrapolation schemes; Compound Job, initial MDCI parallelization
   Dimitrios Manganas     : Further ROCIS development; embedding schemes
   Dimitrios Pantazis     : SARC Basis sets
   Anastasios Papadopoulos: AUTO-CI, single reference methods and gradients
   Taras Petrenko         : DFT Hessian,TD-DFT gradient, ASA, ECA, R-Raman, ABS, FL, XAS/XES, NRVS
   Peter Pinski           : DLPNO-MP2, DLPNO-MP2 Gradient
   Christoph Reimann      : Effective Core Potentials
   Marius Retegan         : Local ZFS, SOC
   Christoph Riplinger    : Optimizer, TS searches, QM/MM, DLPNO-CCSD(T), (RO)-DLPNO pert. Triples
   Tobias Risthaus        : Range-separated hybrids, TD-DFT gradient, RPA, STAB
   Michael Roemelt        : Original ROCIS implementation
   Masaaki Saitow         : Open-shell DLPNO-CCSD energy and density
   Barbara Sandhoefer     : DKH picture change effects
   Avijit Sen             : IP-ROCIS
   Kantharuban Sivalingam : CASSCF convergence, NEVPT2, FIC-MRCI
   Bernardo de Souza      : ESD, SOC TD-DFT
   Georgi Stoychev        : AutoAux, RI-MP2 NMR, DLPNO-MP2 response
   Willem Van den Heuvel  : Paramagnetic NMR
   Boris Wezisla          : Elementary symmetry handling
   Frank Wennmohs         : Technical directorship


 We gratefully acknowledge several colleagues who have allowed us to
 interface, adapt or use parts of their codes:
   Stefan Grimme, W. Hujo, H. Kruse, P. Pracht,  : VdW corrections, initial TS optimization,
                  C. Bannwarth, S. Ehlert          DFT functionals, gCP, sTDA/sTD-DF
   Ed Valeev, F. Pavosevic, A. Kumar             : LibInt (2-el integral package), F12 methods
   Garnet Chan, S. Sharma, J. Yang, R. Olivares  : DMRG
   Ulf Ekstrom                                   : XCFun DFT Library
   Mihaly Kallay                                 : mrcc  (arbitrary order and MRCC methods)
   Jiri Pittner, Ondrej Demel                    : Mk-CCSD
   Frank Weinhold                                : gennbo (NPA and NBO analysis)
   Christopher J. Cramer and Donald G. Truhlar   : smd solvation model
   Lars Goerigk                                  : TD-DFT with DH, B97 family of functionals
   V. Asgeirsson, H. Jonsson                     : NEB implementation
   FAccTs GmbH                                   : IRC, NEB, NEB-TS, DLPNO-Multilevel, CI-OPT
                                                   MM, QMMM, 2- and 3-layer-ONIOM, Crystal-QMMM,
                                                   LR-CPCM, SF, NACMEs, symmetry and pop. for TD-DFT,
                                                   nearIR, NL-DFT gradient (VV10), updates on ESD,
                                                   ML-optimized integration grids
   S Lehtola, MJT Oliveira, MAL Marques          : LibXC Library
   Liviu Ungur et al                             : ANISO software


 Your calculation uses the libint2 library for the computation of 2-el integrals
 For citations please refer to: http://libint.valeyev.net

 Your ORCA version has been built with support for libXC version: 5.1.0
 For citations please refer to: https://tddft.org/programs/libxc/

 This ORCA versions uses:
   CBLAS   interface :  Fast vector & matrix operations
   LAPACKE interface :  Fast linear algebra routines
   SCALAPACK package :  Parallel linear algebra routines
   Shared memory     :  Shared parallel matrices
   BLAS/LAPACK       :  OpenBLAS 0.3.15  USE64BITINT DYNAMIC_ARCH NO_AFFINITY SkylakeX SINGLE_THREADED
        Core in use  :  SkylakeX
   Copyright (c) 2011-2014, The OpenBLAS Project




***************************************
The coordinates will be read from file: IEIP_ts_guess.xyz
***************************************




################################################################################


                                COMPOUND JOB MainJOB 
Basename: reaction-2-ieip_optts_Compound_0

################################################################################

================================================================================
                                       INPUT FILE
================================================================================
NAME = reaction-2-ieip_optts_Compound_0.inp
|  1> %pal nprocs 8 end 
|  2>   
|  3>  *xyzfile -1 1 IEIP_ts_guess.xyz 
|  4>   
|  5> 
|  6>                          ****END OF INPUT****
================================================================================


***************************************
The coordinates will be read from file: IEIP_ts_guess.xyz
***************************************


================================================================================

cite the ECPs for Pd [Def2-ECP] as follows:
Ce-Yb(ecp-28): M. Dolg, H. Stoll, H.Preuss, J. Chem. Phys., 1989, 90, 1730-1734.
Y-Cd(ecp-28), Hf-Hg(ecp-46): D. Andrae,U. Haeussermann, M. Dolg, H. Stoll, H. Preuss, Theor. Chim. Acta, 1990, 77, 123-141.
In-Sb(ecp-28), Tl-Bi(ecp-46): B. Metz, H. Stoll, M. Dolg, J. Chem. Phys., 2000, 113, 2563-2569.
Te-Xe(ecp-28), Po-Rn(ecp-46): K. A. Peterson, D. Figgen, E. Goll, H. Stoll, M. Dolg, J. Chem. Phys., 2003, 119, 11113-11123.
Rb(ecp-28), Cs(ecp-46): T. Leininger, A. Nicklass, W. Kuechle, H. Stoll, M. Dolg, A. Bergner, Chem. Phys. Lett., 1996, 255, 274-280.
Sr(ecp-28), Ba(ecp-46): M. Kaupp, P. V. Schleyer, H. Stoll and H. Preuss, J. Chem. Phys., 1991, 94, 1360-1366.
La(ecp-46): M. Dolg, H. Stoll, A. Savin, H. Preuss, Theor. Chim. Acta, 1989, 75, 173-194.
Lu(ecp-28): X. Cao, M. Dolg, J. Chem. Phys., 2001, 115, 7348-7355.

ECP parameters for Pd [Def2-ECP] have been obtained from:
TURBOMOLE (7.0.2)

----- Orbital basis set information -----
Your calculation utilizes the basis: def2-SVP
   F. Weigend and R. Ahlrichs, Phys. Chem. Chem. Phys. 7, 3297 (2005).



################################################################################


                                COMPOUND JOB  1 
Basename: reaction-2-ieip_optts_Compound_1
NOTE: please remember that MaxCore and PAL settings will be ignored.

################################################################################

================================================================================
                                       INPUT FILE
================================================================================
NAME = reaction-2-ieip_optts_Compound_1.inp
|  1>   
|  2>    
|  3>   ! PBEh-3c OptTS Freq pal8 
|  4>    
|  5>   %geom 
|  6>    calc_hess true 
|  7>    recalc_hess 20 
|  8>    maxiter 600 
|  9>   end  
| 10>    
| 11> 
| 12>                          ****END OF INPUT****
================================================================================
Your calculation utilizes the geometrical counterpoise correction gCP
Please cite in your paper:
H.Kruse, S. Grimme J.Chem.Phys., 136, (2012), 154101 
   

Your calculation utilizes the atom-pairwise dispersion correction
with the Becke-Johnson damping scheme (D3BJ)
Cite in your paper:
S.Grimme, S.Ehrlich, L.Goerigk, J Comput Chem, (2011), 32, 1456–1465 
S.Grimme, J.Antony, S.Ehrlich and H.Krieg, J.Chem.Phys., 132, (2010), 154104 
   

Your calculation employs the composite approach PBEh-3c.
Please cite in your paper:
S. Grimme, J. G. Brandenburg, C. Bannwarth, A. Hansen J.Chem.Phys., 143, (2015), 054107 
   

================================================================================

cite the ECPs for Pd [Def2-ECP] as follows:
Ce-Yb(ecp-28): M. Dolg, H. Stoll, H.Preuss, J. Chem. Phys., 1989, 90, 1730-1734.
Y-Cd(ecp-28), Hf-Hg(ecp-46): D. Andrae,U. Haeussermann, M. Dolg, H. Stoll, H. Preuss, Theor. Chim. Acta, 1990, 77, 123-141.
In-Sb(ecp-28), Tl-Bi(ecp-46): B. Metz, H. Stoll, M. Dolg, J. Chem. Phys., 2000, 113, 2563-2569.
Te-Xe(ecp-28), Po-Rn(ecp-46): K. A. Peterson, D. Figgen, E. Goll, H. Stoll, M. Dolg, J. Chem. Phys., 2003, 119, 11113-11123.
Rb(ecp-28), Cs(ecp-46): T. Leininger, A. Nicklass, W. Kuechle, H. Stoll, M. Dolg, A. Bergner, Chem. Phys. Lett., 1996, 255, 274-280.
Sr(ecp-28), Ba(ecp-46): M. Kaupp, P. V. Schleyer, H. Stoll and H. Preuss, J. Chem. Phys., 1991, 94, 1360-1366.
La(ecp-46): M. Dolg, H. Stoll, A. Savin, H. Preuss, Theor. Chim. Acta, 1989, 75, 173-194.
Lu(ecp-28): X. Cao, M. Dolg, J. Chem. Phys., 2001, 115, 7348-7355.

ECP parameters for Pd [Def2-ECP] have been obtained from:
TURBOMOLE (7.0.2)

----- Orbital basis set information -----
Your calculation utilizes the basis: def2-mSVP

----- AuxJ basis set information -----
Your calculation utilizes the auxiliary basis: def2/J
   F. Weigend, Phys. Chem. Chem. Phys. 8, 1057 (2006).

================================================================================
                                        WARNINGS
                       Please study these warnings very carefully!
================================================================================


WARNING: Geometry Optimization
  ===> : Switching off AutoStart
         For restart on a previous wavefunction, please use MOREAD

INFO   : the flag for use of the SHARK integral package has been found!


                       *****************************
                       * Geometry Optimization Run *
                       *****************************

Geometry optimization settings:
Update method            Update   .... Bofill
Choice of coordinates    CoordSys .... Z-matrix Internals
Initial Hessian          InHess   .... Almoef's Model

Convergence Tolerances:
Energy Change            TolE     ....  5.0000e-06 Eh
Max. Gradient            TolMAXG  ....  3.0000e-04 Eh/bohr
RMS Gradient             TolRMSG  ....  1.0000e-04 Eh/bohr
Max. Displacement        TolMAXD  ....  4.0000e-03 bohr
RMS Displacement         TolRMSD  ....  2.0000e-03 bohr
Strict Convergence                ....  False
------------------------------------------------------------------------------
                        ORCA OPTIMIZATION COORDINATE SETUP
------------------------------------------------------------------------------

The optimization will be done in new redundant internal coordinates
Making redundant internal coordinates   ...  (new redundants) done
Following TS mode number                ...     0
Evaluating the initial hessian          ...  (Is done on the fly) done
Evaluating the coordinates              ...  done
Calculating the B-matrix                .... done
Calculating the G-matrix                .... done
Diagonalizing the G-matrix              .... done
The first mode is                       ....  104
The number of degrees of freedom        ....   75

    -----------------------------------------------------------------
                    Redundant Internal Coordinates


    -----------------------------------------------------------------
         Definition                    Initial Value    d2E/dq (diagonal element)
    -----------------------------------------------------------------
      1. B(Cl  1,Pd  0)                  2.2773         0.000000   
      2. B(Cl  2,Pd  0)                  3.0339         0.000000   
      3. B(Cl  3,Pd  0)                  2.2992         0.000000   
      4. B(N   4,Pd  0)                  2.0545         0.000000   
      5. B(C   5,N   4)                  1.3188         0.000000   
      6. B(C   6,C   5)                  1.3958         0.000000   
      7. B(C   7,C   6)                  1.3718         0.000000   
      8. B(C   8,N   4)                  1.3478         0.000000   
      9. B(C   9,C   8)                  1.4112         0.000000   
     10. B(C   9,C   7)                  1.3986         0.000000   
     11. B(H  10,C   7)                  1.0845         0.000000   
     12. B(H  11,C   5)                  1.0790         0.000000   
     13. B(H  12,C   6)                  1.0806         0.000000   
     14. B(C  13,C   8)                  1.4336         0.000000   
     15. B(C  14,C   9)                  1.4260         0.000000   
     16. B(C  15,C  14)                  1.3497         0.000000   
     17. B(C  16,C  15)                  1.4326         0.000000   
     18. B(C  16,C  13)                  1.4168         0.000000   
     19. B(H  17,C  14)                  1.0843         0.000000   
     20. B(H  18,C  15)                  1.0846         0.000000   
     21. B(C  19,C  13)                  1.4307         0.000000   
     22. B(C  19,Pd  0)                  2.3723         0.000000   
     23. B(C  20,C  16)                  1.3997         0.000000   
     24. B(C  21,C  19)                  1.3881         0.000000   
     25. B(C  22,C  21)                  1.4040         0.000000   
     26. B(C  22,C  20)                  1.3730         0.000000   
     27. B(H  23,C  20)                  1.0851         0.000000   
     28. B(H  24,C  22)                  1.0836         0.000000   
     29. B(H  25,Cl  2)                  1.6290         0.000000   
     30. B(H  25,Pd  0)                  2.1775         0.000000   
     31. B(H  26,C  21)                  1.0824         0.000000   
     32. A(Cl  1,Pd  0,H  25)           90.6158         0.000000   
     33. A(Cl  1,Pd  0,Cl  2)           79.6385         0.000000   
     34. A(Cl  1,Pd  0,Cl  3)           90.9053         0.000000   
     35. A(Cl  2,Pd  0,Cl  3)          144.7148         0.000000   
     36. A(Cl  2,Pd  0,C  19)           68.6345         0.000000   
     37. A(Cl  3,Pd  0,N   4)           87.6348         0.000000   
     38. A(C  19,Pd  0,H  25)           37.3606         0.000000   
     39. A(Cl  3,Pd  0,H  25)          174.9994         0.000000   
     40. A(Cl  2,Pd  0,H  25)           31.2759         0.000000   
     41. A(Cl  3,Pd  0,C  19)          146.3454         0.000000   
     42. A(N   4,Pd  0,C  19)           77.9726         0.000000   
     43. A(Cl  1,Pd  0,C  19)          103.7476         0.000000   
     44. A(N   4,Pd  0,H  25)           90.7636         0.000000   
     45. A(Cl  2,Pd  0,N   4)          101.0532         0.000000   
     46. A(Pd  0,Cl  2,H  25)           43.9445         0.000000   
     47. A(Pd  0,N   4,C   8)          114.4674         0.000000   
     48. A(C   5,N   4,C   8)          120.1369         0.000000   
     49. A(Pd  0,N   4,C   5)          123.5488         0.000000   
     50. A(N   4,C   5,C   6)          122.3077         0.000000   
     51. A(C   6,C   5,H  11)          121.0208         0.000000   
     52. A(N   4,C   5,H  11)          116.6353         0.000000   
     53. A(C   7,C   6,H  12)          121.4372         0.000000   
     54. A(C   5,C   6,H  12)          119.7348         0.000000   
     55. A(C   5,C   6,C   7)          118.7589         0.000000   
     56. A(C   9,C   7,H  10)          119.3977         0.000000   
     57. A(C   6,C   7,H  10)          121.0735         0.000000   
     58. A(C   6,C   7,C   9)          119.5288         0.000000   
     59. A(N   4,C   8,C   9)          120.6473         0.000000   
     60. A(C   9,C   8,C  13)          121.8995         0.000000   
     61. A(N   4,C   8,C  13)          117.4204         0.000000   
     62. A(C   7,C   9,C   8)          118.1963         0.000000   
     63. A(C   8,C   9,C  14)          119.2165         0.000000   
     64. A(C   7,C   9,C  14)          122.5746         0.000000   
     65. A(C   8,C  13,C  16)          116.3763         0.000000   
     66. A(C  16,C  13,C  19)          122.5586         0.000000   
     67. A(C   8,C  13,C  19)          121.0517         0.000000   
     68. A(C  15,C  14,H  17)          121.1565         0.000000   
     69. A(C   9,C  14,H  17)          119.0248         0.000000   
     70. A(C   9,C  14,C  15)          119.8112         0.000000   
     71. A(C  16,C  15,H  18)          118.3585         0.000000   
     72. A(C  14,C  15,H  18)          119.9044         0.000000   
     73. A(C  14,C  15,C  16)          121.7327         0.000000   
     74. A(C  13,C  16,C  15)          120.7087         0.000000   
     75. A(C  15,C  16,C  20)          120.2532         0.000000   
     76. A(C  13,C  16,C  20)          119.0349         0.000000   
     77. A(C  13,C  19,C  21)          115.0218         0.000000   
     78. A(Pd  0,C  19,C  21)          135.5907         0.000000   
     79. A(Pd  0,C  19,C  13)           99.6717         0.000000   
     80. A(C  22,C  20,H  23)          121.3711         0.000000   
     81. A(C  16,C  20,H  23)          119.2752         0.000000   
     82. A(C  16,C  20,C  22)          119.3535         0.000000   
     83. A(C  22,C  21,H  26)          118.2542         0.000000   
     84. A(C  19,C  21,H  26)          118.7397         0.000000   
     85. A(C  19,C  21,C  22)          122.9751         0.000000   
     86. A(C  21,C  22,H  24)          119.8781         0.000000   
     87. A(C  20,C  22,H  24)          119.1314         0.000000   
     88. A(C  20,C  22,C  21)          120.9724         0.000000   
     89. A(Pd  0,H  25,Cl  2)          104.7797         0.000000   
     90. D(H  25,Cl  2,Pd  0,Cl  1)    108.7870         0.000000   
     91. D(H  25,Cl  2,Pd  0,C  19)     -0.5389         0.000000   
     92. D(H  25,Cl  2,Pd  0,N   4)    -72.8165         0.000000   
     93. D(H  25,Cl  2,Pd  0,Cl  3)   -174.5437         0.000000   
     94. D(C   5,N   4,Pd  0,C  19)   -170.4745         0.000000   
     95. D(C   5,N   4,Pd  0,Cl  3)     40.1413         0.000000   
     96. D(C   5,N   4,Pd  0,Cl  2)   -105.3819         0.000000   
     97. D(C   8,N   4,Pd  0,C  19)     25.0317         0.000000   
     98. D(C   8,N   4,Pd  0,H  25)     60.3866         0.000000   
     99. D(C   8,N   4,Pd  0,Cl  2)     90.1243         0.000000   
    100. D(C   8,N   4,Pd  0,Cl  3)   -124.3525         0.000000   
    101. D(C   5,N   4,Pd  0,H  25)   -135.1196         0.000000   
    102. D(H  11,C   5,N   4,Pd  0)     16.6750         0.000000   
    103. D(C   6,C   5,N   4,Pd  0)   -161.1565         0.000000   
    104. D(C   6,C   5,N   4,C   8)      2.5017         0.000000   
    105. D(H  11,C   5,N   4,C   8)   -179.6668         0.000000   
    106. D(H  12,C   6,C   5,H  11)      2.3740         0.000000   
    107. D(H  12,C   6,C   5,N   4)   -179.8880         0.000000   
    108. D(C   7,C   6,C   5,N   4)      3.0913         0.000000   
    109. D(C   7,C   6,C   5,H  11)   -174.6467         0.000000   
    110. D(H  10,C   7,C   6,H  12)     -1.0446         0.000000   
    111. D(H  10,C   7,C   6,C   5)    175.9233         0.000000   
    112. D(C   9,C   7,C   6,H  12)    179.0202         0.000000   
    113. D(C   9,C   7,C   6,C   5)     -4.0119         0.000000   
    114. D(C  13,C   8,N   4,C   5)    175.0189         0.000000   
    115. D(C  13,C   8,N   4,Pd  0)    -19.9107         0.000000   
    116. D(C   9,C   8,N   4,C   5)     -7.0258         0.000000   
    117. D(C   9,C   8,N   4,Pd  0)    158.0446         0.000000   
    118. D(C  14,C   9,C   7,C   6)    178.3853         0.000000   
    119. D(C   8,C   9,C   7,H  10)    179.7544         0.000000   
    120. D(C   8,C   9,C   7,C   6)     -0.3094         0.000000   
    121. D(C  14,C   9,C   8,C  13)      5.0265         0.000000   
    122. D(C   7,C   9,C   8,C  13)   -176.2338         0.000000   
    123. D(C   7,C   9,C   8,N   4)      5.9041         0.000000   
    124. D(C  14,C   9,C   7,H  10)     -1.5510         0.000000   
    125. D(C  14,C   9,C   8,N   4)   -172.8356         0.000000   
    126. D(C  19,C  13,C   8,C   9)    175.3769         0.000000   
    127. D(C  19,C  13,C   8,N   4)     -6.6952         0.000000   
    128. D(C  16,C  13,C   8,C   9)     -5.9202         0.000000   
    129. D(C  16,C  13,C   8,N   4)    172.0077         0.000000   
    130. D(H  17,C  14,C   9,C   8)    178.1411         0.000000   
    131. D(C  15,C  14,C   9,C   8)     -0.8704         0.000000   
    132. D(C  15,C  14,C   9,C   7)   -179.5523         0.000000   
    133. D(H  17,C  14,C   9,C   7)     -0.5408         0.000000   
    134. D(H  18,C  15,C  14,H  17)     -0.3019         0.000000   
    135. D(H  18,C  15,C  14,C   9)    178.6880         0.000000   
    136. D(C  16,C  15,C  14,H  17)    178.9131         0.000000   
    137. D(C  16,C  15,C  14,C   9)     -2.0970         0.000000   
    138. D(C  20,C  16,C  15,H  18)      0.8993         0.000000   
    139. D(C  13,C  16,C  15,H  18)   -179.7538         0.000000   
    140. D(C  13,C  16,C  15,C  14)      1.0194         0.000000   
    141. D(C  20,C  16,C  13,C  19)      0.9455         0.000000   
    142. D(C  20,C  16,C  13,C   8)   -177.7362         0.000000   
    143. D(C  20,C  16,C  15,C  14)   -178.3275         0.000000   
    144. D(C  15,C  16,C  13,C  19)   -178.4093         0.000000   
    145. D(C  15,C  16,C  13,C   8)      2.9091         0.000000   
    146. D(C  21,C  19,Pd  0,Cl  1)     13.3809         0.000000   
    147. D(C  13,C  19,Pd  0,H  25)   -132.2933         0.000000   
    148. D(C  13,C  19,Pd  0,N   4)    -24.7445         0.000000   
    149. D(C  13,C  19,Pd  0,Cl  3)     41.9177         0.000000   
    150. D(C  13,C  19,Pd  0,Cl  2)   -131.8323         0.000000   
    151. D(C  21,C  19,Pd  0,Cl  2)     86.2511         0.000000   
    152. D(C  13,C  19,Pd  0,Cl  1)    155.2975         0.000000   
    153. D(C  21,C  19,C  13,C  16)     -2.9798         0.000000   
    154. D(C  21,C  19,C  13,C   8)    175.6415         0.000000   
    155. D(Pd  0,C  19,C  13,C  16)   -154.5335         0.000000   
    156. D(Pd  0,C  19,C  13,C   8)     24.0878         0.000000   
    157. D(C  21,C  19,Pd  0,H  25)     85.7901         0.000000   
    158. D(C  21,C  19,Pd  0,N   4)   -166.6611         0.000000   
    159. D(C  21,C  19,Pd  0,Cl  3)    -99.9989         0.000000   
    160. D(H  23,C  20,C  16,C  15)      0.5284         0.000000   
    161. D(H  23,C  20,C  16,C  13)   -178.8294         0.000000   
    162. D(C  22,C  20,C  16,C  15)   -179.6549         0.000000   
    163. D(C  22,C  20,C  16,C  13)      0.9873         0.000000   
    164. D(H  26,C  21,C  19,C  13)   -178.7882         0.000000   
    165. D(H  26,C  21,C  19,Pd  0)    -40.9339         0.000000   
    166. D(C  22,C  21,C  19,C  13)      3.2719         0.000000   
    167. D(C  22,C  21,C  19,Pd  0)    141.1263         0.000000   
    168. D(H  24,C  22,C  21,H  26)     -1.0533         0.000000   
    169. D(H  24,C  22,C  21,C  19)    176.8960         0.000000   
    170. D(C  20,C  22,C  21,H  26)   -179.4950         0.000000   
    171. D(C  20,C  22,C  21,C  19)     -1.5456         0.000000   
    172. D(H  24,C  22,C  20,H  23)      0.6228         0.000000   
    173. D(H  24,C  22,C  20,C  16)   -179.1900         0.000000   
    174. D(C  21,C  22,C  20,H  23)    179.0759         0.000000   
    175. D(C  21,C  22,C  20,C  16)     -0.7369         0.000000   
    176. D(Cl  2,H  25,Pd  0,C  19)    179.1730         0.000000   
    177. D(Cl  2,H  25,Pd  0,N   4)    110.3271         0.000000   
    178. D(Cl  2,H  25,Pd  0,Cl  3)     39.0603         0.000000   
    179. D(Cl  2,H  25,Pd  0,Cl  1)    -68.6442         0.000000   
    -----------------------------------------------------------------

Number of atoms                         .... 27
Number of degrees of freedom            .... 179

         *************************************************************
         *                GEOMETRY OPTIMIZATION CYCLE   1            *
         *************************************************************
---------------------------------
CARTESIAN COORDINATES (ANGSTROEM)
---------------------------------
  Pd    -2.080380   -1.575790    0.467860
  Cl    -3.368550   -3.159560   -0.541320
  Cl    -0.413020   -4.054400    0.998020
  Cl    -3.953930   -0.403380    1.101390
  N     -0.963000   -0.138350    1.419890
  C     -1.301610    0.402040    2.574230
  C     -0.767650    1.613680    3.015930
  C      0.091800    2.295530    2.192300
  C     -0.035190    0.453570    0.641880
  C      0.477210    1.725680    0.974590
  H      0.477100    3.270650    2.469330
  H     -2.045720   -0.121900    3.153850
  H     -1.073280    2.017860    3.970320
  C      0.368370   -0.238440   -0.547060
  C      1.339830    2.391060    0.054410
  C      1.668820    1.792610   -1.109800
  C      1.209010    0.475640   -1.436340
  H      1.707330    3.381240    0.299640
  H      2.307550    2.306140   -1.820160
  C     -0.086690   -1.567520   -0.817780
  C      1.597610   -0.129430   -2.637200
  C      0.303070   -2.082700   -2.046370
  C      1.140290   -1.389330   -2.934850
  H      2.256820    0.406360   -3.312320
  H      1.453980   -1.859650   -3.859260
  H     -0.285580   -2.735760    0.050110
  H     -0.024860   -3.076800   -2.321540

----------------------------
CARTESIAN COORDINATES (A.U.)
----------------------------
  NO LB      ZA    FRAG     MASS         X           Y           Z
   0 Pd   18.0000*   0   106.400   -3.931348   -2.977812    0.884127
   1 Cl   17.0000    0    35.453   -6.365637   -5.970703   -1.022947
   2 Cl   17.0000    0    35.453   -0.780495   -7.661706    1.885984
   3 Cl   17.0000    0    35.453   -7.471845   -0.762278    2.081325
   4 N     7.0000    0    14.007   -1.819806   -0.261444    2.683203
   5 C     6.0000    0    12.011   -2.459686    0.759745    4.864590
   6 C     6.0000    0    12.011   -1.450648    3.049413    5.699282
   7 C     6.0000    0    12.011    0.173477    4.337923    4.142847
   8 C     6.0000    0    12.011   -0.066499    0.857123    1.212977
   9 C     6.0000    0    12.011    0.901796    3.261063    1.841708
  10 H     1.0000    0     1.008    0.901588    6.180633    4.666357
  11 H     1.0000    0     1.008   -3.865851   -0.230358    5.959913
  12 H     1.0000    0     1.008   -2.028205    3.813203    7.502817
  13 C     6.0000    0    12.011    0.696118   -0.450586   -1.033794
  14 C     6.0000    0    12.011    2.531912    4.518449    0.102820
  15 C     6.0000    0    12.011    3.153613    3.387542   -2.097218
  16 C     6.0000    0    12.011    2.284698    0.898829   -2.714289
  17 H     1.0000    0     1.008    3.226386    6.389618    0.566238
  18 H     1.0000    0     1.008    4.360638    4.357973   -3.439604
  19 C     6.0000    0    12.011   -0.163820   -2.962184   -1.545380
  20 C     6.0000    0    12.011    3.019045   -0.244587   -4.983586
  21 C     6.0000    0    12.011    0.572719   -3.935733   -3.867079
  22 C     6.0000    0    12.011    2.154836   -2.625453   -5.546063
  23 H     1.0000    0     1.008    4.264772    0.767909   -6.259378
  24 H     1.0000    0     1.008    2.747624   -3.514229   -7.292944
  25 H     1.0000    0     1.008   -0.539668   -5.169837    0.094694
  26 H     1.0000    0     1.008   -0.046979   -5.814309   -4.387075
* core charge reduced due to ECP

--------------------------------
INTERNAL COORDINATES (ANGSTROEM)
--------------------------------
 Pd     0   0   0     0.000000000000     0.00000000     0.00000000
 Cl     1   0   0     2.277312809914     0.00000000     0.00000000
 Cl     1   2   0     3.033919334343    79.63845842     0.00000000
 Cl     1   2   3     2.299150945784    90.90526382   214.20480138
 N      1   2   3     2.054539592926   178.27923363   246.15328806
 C      5   1   2     1.318779329456   123.54880031     8.16684195
 C      6   5   1     1.395809321218   122.30770016   198.84354540
 C      7   6   5     1.371838220017   118.75894811     3.09129235
 C      5   1   2     1.347776035772   114.46741525   203.67300731
 C      8   7   6     1.398601992956   119.52881249   355.98813551
 H      8   7   6     1.084463335157   121.07349136   175.92330800
 H      6   5   1     1.078968099667   116.63530984    16.67495952
 H      7   6   5     1.080569961363   119.73478520   180.11202874
 C      9   5   1     1.433637624123   117.42041932   340.08933127
 C     10   8   7     1.426034726506   122.57456091   178.38530378
 C     15  10   8     1.349726545156   119.81116237   180.44772716
 C     14   9   5     1.416829126747   116.37629148   172.00773494
 H     15  10   8     1.084274151357   119.02475994   359.45918144
 H     16  15  10     1.084573834923   119.90436543   178.68799682
 C     14   9   5     1.430672068784   121.05169272   353.30477182
 C     17  14   9     1.399708685584   119.03488392   182.26383098
 C     20  14   9     1.388076611034   115.02180675   175.64147690
 C     21  17  14     1.372984018443   119.35351280     0.98733153
 H     21  17  14     1.085087905471   119.27515881   181.17059426
 H     23  21  17     1.083575639538   119.13144704   180.81000797
 H     20  14   9     1.468868606037   132.07630961   320.38762985
 H     22  20  14     1.082354573973   118.73974879   181.21179916

---------------------------
INTERNAL COORDINATES (A.U.)
---------------------------
 Pd     0   0   0     0.000000000000     0.00000000     0.00000000
 Cl     1   0   0     4.303497532009     0.00000000     0.00000000
 Cl     1   2   0     5.733276654317    79.63845842     0.00000000
 Cl     1   2   3     4.344765628078    90.90526382   214.20480138
 N      1   2   3     3.882517161928   178.27923363   246.15328806
 C      5   1   2     2.492131763748   123.54880031     8.16684195
 C      6   5   1     2.637697352277   122.30770016   198.84354540
 C      7   6   5     2.592398535879   118.75894811     3.09129235
 C      5   1   2     2.546927597470   114.46741525   203.67300731
 C      8   7   6     2.642974737043   119.52881249   355.98813551
 H      8   7   6     2.049338705726   121.07349136   175.92330800
 H      6   5   1     2.038954215609   116.63530984    16.67495952
 H      7   6   5     2.041981295518   119.73478520   180.11202874
 C      9   5   1     2.709182484877   117.42041932   340.08933127
 C     10   8   7     2.694815090557   122.57456091   178.38530378
 C     15  10   8     2.550613526029   119.81116237   180.44772716
 C     14   9   5     2.677419028116   116.37629148   172.00773494
 H     15  10   8     2.048981200154   119.02475994   359.45918144
 H     16  15  10     2.049547520022   119.90436543   178.68799682
 C     14   9   5     2.703578397453   121.05169272   353.30477182
 C     17  14   9     2.645066083025   119.03488392   182.26383098
 C     20  14   9     2.623084647756   115.02180675   175.64147690
 C     21  17  14     2.594563781108   119.35351280     0.98733153
 H     21  17  14     2.050518972571   119.27515881   181.17059426
 H     23  21  17     2.047661204115   119.13144704   180.81000797
 H     20  14   9     2.775759392124   132.07630961   320.38762985
 H     22  20  14     2.045353724606   118.73974879   181.21179916

---------------------
BASIS SET INFORMATION
---------------------
There are 5 groups of distinct atoms

 Group   1 Type Pd  : 7s6p5d1f contracted to 5s3p2d1f pattern {31111/411/41/1}
 Group   2 Type Cl  : 10s7p1d contracted to 4s3p1d pattern {5311/511/1}
 Group   3 Type N   : 8s4p1d contracted to 4s2p1d pattern {5111/31/1}
 Group   4 Type C   : 8s4p1d contracted to 4s2p1d pattern {5111/31/1}
 Group   5 Type H   : 4s contracted to 2s pattern {31}

Atom   0Pd   basis set group =>   1
Atom   1Cl   basis set group =>   2
Atom   2Cl   basis set group =>   2
Atom   3Cl   basis set group =>   2
Atom   4N    basis set group =>   3
Atom   5C    basis set group =>   4
Atom   6C    basis set group =>   4
Atom   7C    basis set group =>   4
Atom   8C    basis set group =>   4
Atom   9C    basis set group =>   4
Atom  10H    basis set group =>   5
Atom  11H    basis set group =>   5
Atom  12H    basis set group =>   5
Atom  13C    basis set group =>   4
Atom  14C    basis set group =>   4
Atom  15C    basis set group =>   4
Atom  16C    basis set group =>   4
Atom  17H    basis set group =>   5
Atom  18H    basis set group =>   5
Atom  19C    basis set group =>   4
Atom  20C    basis set group =>   4
Atom  21C    basis set group =>   4
Atom  22C    basis set group =>   4
Atom  23H    basis set group =>   5
Atom  24H    basis set group =>   5
Atom  25H    basis set group =>   5
Atom  26H    basis set group =>   5
---------------------------------
AUXILIARY/J BASIS SET INFORMATION
---------------------------------
There are 5 groups of distinct atoms

 Group   1 Type Pd  : 11s5p5d3f3g contracted to 8s5p5d2f3g pattern {41111111/11111/11111/21/111}
 Group   2 Type Cl  : 14s5p5d2f1g contracted to 8s4p3d1f1g pattern {71111111/2111/311/2/1}
 Group   3 Type N   : 12s5p4d2f1g contracted to 6s4p3d1f1g pattern {711111/2111/211/2/1}
 Group   4 Type C   : 12s5p4d2f1g contracted to 6s4p3d1f1g pattern {711111/2111/211/2/1}
 Group   5 Type H   : 5s2p1d contracted to 3s1p1d pattern {311/2/1}

Atom   0Pd   basis set group =>   1
Atom   1Cl   basis set group =>   2
Atom   2Cl   basis set group =>   2
Atom   3Cl   basis set group =>   2
Atom   4N    basis set group =>   3
Atom   5C    basis set group =>   4
Atom   6C    basis set group =>   4
Atom   7C    basis set group =>   4
Atom   8C    basis set group =>   4
Atom   9C    basis set group =>   4
Atom  10H    basis set group =>   5
Atom  11H    basis set group =>   5
Atom  12H    basis set group =>   5
Atom  13C    basis set group =>   4
Atom  14C    basis set group =>   4
Atom  15C    basis set group =>   4
Atom  16C    basis set group =>   4
Atom  17H    basis set group =>   5
Atom  18H    basis set group =>   5
Atom  19C    basis set group =>   4
Atom  20C    basis set group =>   4
Atom  21C    basis set group =>   4
Atom  22C    basis set group =>   4
Atom  23H    basis set group =>   5
Atom  24H    basis set group =>   5
Atom  25H    basis set group =>   5
Atom  26H    basis set group =>   5
-------------------------
ECP PARAMETER INFORMATION
-------------------------

 Group 1, Type Pd ECP Def2-ECP (replacing 28 core electrons, lmax=3)

Atom   0Pd   ECP group =>   1



           ************************************************************
           *        Program running with 8 parallel MPI-processes     *
           *              working on a common directory               *
           ************************************************************
------------------------------------------------------------------------------
                           ORCA GTO INTEGRAL CALCULATION
                           -- RI-GTO INTEGRALS CHOSEN --
------------------------------------------------------------------------------
------------------------------------------------------------------------------
                   ___                                                        
                  /   \      - P O W E R E D   B Y -                         
                 /     \                                                     
                 |  |  |   _    _      __       _____    __    __             
                 |  |  |  | |  | |    /  \     |  _  \  |  |  /  |          
                  \  \/   | |  | |   /    \    | | | |  |  | /  /          
                 / \  \   | |__| |  /  /\  \   | |_| |  |  |/  /          
                |  |  |   |  __  | /  /__\  \  |    /   |      \           
                |  |  |   | |  | | |   __   |  |    \   |  |\   \          
                \     /   | |  | | |  |  |  |  | |\  \  |  | \   \       
                 \___/    |_|  |_| |__|  |__|  |_| \__\ |__|  \__/        
                                                                              
                      - O R C A' S   B I G   F R I E N D -                    
                                      &                                       
                       - I N T E G R A L  F E E D E R -                       
                                                                              
 v1 FN, 2020, v2 2021                                                         
------------------------------------------------------------------------------


Reading SHARK input file reaction-2-ieip_optts_Compound_1.SHARKINP.tmp ... ok
----------------------
SHARK INTEGRAL PACKAGE
----------------------

Number of atoms                             ...     27
Number of basis functions                   ...    313
Number of shells                            ...    151
Maximum angular momentum                    ...      3
Integral batch strategy                     ... SHARK/LIBINT Hybrid
RI-J (if used) integral strategy            ... SPLIT-RIJ (Revised 2003 algorithm where possible)
Printlevel                                  ...      1
Contraction scheme used                     ... SEGMENTED contraction
Coulomb Range Separation                    ... NOT USED
Exchange Range Separation                   ... NOT USED
Finite Nucleus Model                        ... NOT USED
Auxiliary Coulomb fitting basis             ... AVAILABLE
   # of basis functions in Aux-J            ...   1027
   # of shells in Aux-J                     ...    329
   Maximum angular momentum in Aux-J        ...      4
Auxiliary J/K fitting basis                 ... NOT available
Auxiliary Correlation fitting basis         ... NOT available
Auxiliary 'external' fitting basis          ... NOT available
Integral threshold                          ...     2.500000e-11
Primitive cut-off                           ...     2.500000e-12
Primitive pair pre-selection threshold      ...     2.500000e-12

Calculating pre-screening integrals         ... done (  0.0 sec) Dimension = 151
Organizing shell pair data                  ... done (  0.3 sec)
Shell pair information
Total number of shell pairs                 ...     11476
Shell pairs after pre-screening             ...      8674
Total number of primitive shell pairs       ...     42779
Primitive shell pairs kept                  ...     20522
          la=0 lb=0:   2836 shell pairs
          la=1 lb=0:   2955 shell pairs
          la=1 lb=1:    749 shell pairs
          la=2 lb=0:   1223 shell pairs
          la=2 lb=1:    650 shell pairs
          la=2 lb=2:    151 shell pairs
          la=3 lb=0:     58 shell pairs
          la=3 lb=1:     37 shell pairs
          la=3 lb=2:     14 shell pairs
          la=3 lb=3:      1 shell pairs

Calculating one electron integrals          ... done (  0.0 sec)
Calculating ECP integrals                   ... done (  0.4 sec)
Calculating RI/J V-Matrix + Cholesky decomp.... done (  0.1 sec)
Calculating Nuclear repulsion               ... done (  0.0 sec) ENN=   1856.818094811515 Eh

SHARK setup successfully completed in   1.0 seconds

Maximum memory used throughout the entire GTOINT-calculation: 21.1 MB


           ************************************************************
           *        Program running with 8 parallel MPI-processes     *
           *              working on a common directory               *
           ************************************************************
-------------------------------------------------------------------------------
                                 ORCA SCF
-------------------------------------------------------------------------------

------------
SCF SETTINGS
------------
Hamiltonian:
 Density Functional     Method          .... DFT(GTOs)
 Exchange Functional    Exchange        .... PBE
   PBE kappa parameter   XKappa         ....  1.024500
   PBE mue parameter    XMuePBE         ....  0.123457
 Correlation Functional Correlation     .... PBE
   PBE beta parameter  CBetaPBE         ....  0.030000
 LDA part of GGA corr.  LDAOpt          .... PW91-LDA
 Gradients option       PostSCFGGA      .... off
 Hybrid DFT is turned on
   Fraction HF Exchange ScalHFX         ....  0.420000
   Scaling of DF-GGA-X  ScalDFX         ....  0.580000
   Scaling of DF-GGA-C  ScalDFC         ....  1.000000
   Scaling of DF-LDA-C  ScalLDAC        ....  1.000000
   Perturbative correction              ....  0.000000
   Density functional embedding theory  .... OFF
 RI-approximation to the Coulomb term is turned on
   Number of AuxJ basis functions       .... 1027
   RIJ-ON(X) (HFX calculated with O(N)) .... on
   Number of AuxJ basis functions       .... 1027
   RIJ-COSX (HFX calculated with COS-X)).... on


General Settings:
 Integral files         IntName         .... reaction-2-ieip_optts_Compound_1
 Hartree-Fock type      HFTyp           .... RHF
 Total Charge           Charge          ....   -1
 Multiplicity           Mult            ....    1
 Number of Electrons    NEL             ....  164
 Basis Dimension        Dim             ....  313
 Nuclear Repulsion      ENuc            ....   1856.8180948115 Eh

Convergence Acceleration:
 DIIS                   CNVDIIS         .... on
   Start iteration      DIISMaxIt       ....    12
   Startup error        DIISStart       ....  0.200000
   # of expansion vecs  DIISMaxEq       ....     5
   Bias factor          DIISBfac        ....   1.050
   Max. coefficient     DIISMaxC        ....  10.000
 Trust-Rad. Augm. Hess. CNVTRAH         .... auto
   Auto Start mean grad. ratio tolernc. ....  1.125000
   Auto Start start iteration           ....    20
   Auto Start num. interpolation iter.  ....    10
   Max. Number of Micro iterations      ....    16
   Max. Number of Macro iterations      .... Maxiter - #DIIS iter
   Number of Davidson start vectors     ....     2
   Converg. threshold I  (grad. norm)   ....   1.000e-05
   Converg. threshold II (energy diff.) ....   1.000e-08
   Grad. Scal. Fac. for Micro threshold ....   0.100
   Minimum threshold for Micro iter.    ....   0.010
   NR start threshold (gradient norm)   ....   0.001
   Initial trust radius                 ....   0.400
   Minimum AH scaling param. (alpha)    ....   1.000
   Maximum AH scaling param. (alpha)    .... 1000.000
   Orbital update algorithm             .... Taylor
   White noise on init. David. guess    .... on
   Maximum white noise                  ....   0.010
   Quad. conv. algorithm                .... NR
   COSX micro iterations for RIJONX calc.... off
 SOSCF                  CNVSOSCF        .... off
 Level Shifting         CNVShift        .... on
   Level shift para.    LevelShift      ....    0.2500
   Turn off err/grad.   ShiftErr        ....    0.0010
 Zerner damping         CNVZerner       .... off
 Static damping         CNVDamp         .... on
   Fraction old density DampFac         ....    0.7000
   Max. Damping (<1)    DampMax         ....    0.9800
   Min. Damping (>=0)   DampMin         ....    0.0000
   Turn off err/grad.   DampErr         ....    0.1000
 Fernandez-Rico         CNVRico         .... off

SCF Procedure:
 Maximum # iterations   MaxIter         ....   125
 SCF integral mode      SCFMode         .... Direct
   Integral package                     .... SHARK and LIBINT hybrid scheme
 Reset frequency        DirectResetFreq ....    20
 Integral Threshold     Thresh          ....  2.500e-11 Eh
 Primitive CutOff       TCut            ....  2.500e-12 Eh

Convergence Tolerance:
 Convergence Check Mode ConvCheckMode   .... Total+1el-Energy
 Convergence forced     ConvForced      .... 0
 Energy Change          TolE            ....  1.000e-08 Eh
 1-El. energy change                    ....  1.000e-05 Eh
 DIIS Error             TolErr          ....  5.000e-07


Diagonalization of the overlap matrix:
Smallest eigenvalue                        ... 3.157e-04
Time for diagonalization                   ...    0.029 sec
Threshold for overlap eigenvalues          ... 1.000e-08
Number of eigenvalues below threshold      ... 0
Time for construction of square roots      ...    0.009 sec
Total time needed                          ...    0.041 sec

--------------------------------
INITIAL GUESS: MINIMAL BASIS EHT
--------------------------------
The minimal basis has 119 functions
EHT matrix was diagonalized
Basis set overlap was calculated now projecting the orbitals
Using GuessMode=FMatrix for the initial guess
C*T matrix was formed
Effective Fockian was calculated
Effective Fockian was diagonalized
Initial density was built
                      ------------------
                      INITIAL GUESS DONE
                      ------------------
-------------------
DFT GRID GENERATION
-------------------

General Integration Accuracy     IntAcc      ... 4.159
Radial Grid Type                 RadialGrid  ... OptM3 with GC (2021)
Angular Grid (max. ang.)         AngularGrid ... 3 (Lebedev-194)
Angular grid pruning method      GridPruning ... 4 (adaptive)
Weight generation scheme         WeightScheme... Becke
Basis function cutoff            BFCut       ... 1.0000e-11
Integration weight cutoff        WCut        ... 1.0000e-14
Angular grids for H and He will be reduced by one unit
Partially contracted basis set               ... off
Rotationally invariant grid construction     ... off

Total number of grid points                  ...    76196
Total number of batches                      ...     1204
Average number of points per batch           ...       63
Average number of grid points per atom       ...     2822
Time for grid setup =    0.304 sec

--------------------
COSX GRID GENERATION
--------------------

GRIDX 1
-------
General Integration Accuracy     IntAcc      ... 3.816
Radial Grid Type                 RadialGrid  ... OptM3 with GC (2021)
Angular Grid (max. ang.)         AngularGrid ... 1 (Lebedev-50)
Angular grid pruning method      GridPruning ... 4 (adaptive)
Weight generation scheme         WeightScheme... Becke
Basis function cutoff            BFCut       ... 1.0000e-11
Integration weight cutoff        WCut        ... 1.0000e-14
Angular grids for H and He will be reduced by one unit
Partially contracted basis set               ... on
Rotationally invariant grid construction     ... off

Total number of grid points                  ...    17831
Total number of batches                      ...      290
Average number of points per batch           ...       61
Average number of grid points per atom       ...      660
UseSFitting                                  ... on

GRIDX 2
-------
General Integration Accuracy     IntAcc      ... 4.020
Radial Grid Type                 RadialGrid  ... OptM3 with GC (2021)
Angular Grid (max. ang.)         AngularGrid ... 2 (Lebedev-110)
Angular grid pruning method      GridPruning ... 4 (adaptive)
Weight generation scheme         WeightScheme... Becke
Basis function cutoff            BFCut       ... 1.0000e-11
Integration weight cutoff        WCut        ... 1.0000e-14
Angular grids for H and He will be reduced by one unit
Partially contracted basis set               ... on
Rotationally invariant grid construction     ... off

Total number of grid points                  ...    39843
Total number of batches                      ...      635
Average number of points per batch           ...       62
Average number of grid points per atom       ...     1476
UseSFitting                                  ... on

GRIDX 3
-------
General Integration Accuracy     IntAcc      ... 4.338
Radial Grid Type                 RadialGrid  ... OptM3 with GC (2021)
Angular Grid (max. ang.)         AngularGrid ... 3 (Lebedev-194)
Angular grid pruning method      GridPruning ... 4 (adaptive)
Weight generation scheme         WeightScheme... Becke
Basis function cutoff            BFCut       ... 1.0000e-11
Integration weight cutoff        WCut        ... 1.0000e-14
Angular grids for H and He will be reduced by one unit
Partially contracted basis set               ... on
Rotationally invariant grid construction     ... off

Total number of grid points                  ...    88463
Total number of batches                      ...     1398
Average number of points per batch           ...       63
Average number of grid points per atom       ...     3276
UseSFitting                                  ... on

Time for X-Grid setup             =    0.721 sec

--------------
SCF ITERATIONS
--------------
ITER       Energy         Delta-E        Max-DP      RMS-DP      [F,P]     Damp
               ***  Starting incremental Fock matrix formation  ***
  0  -2049.6687055251   0.000000000000 3.11873151  0.05484402  5.2812097 0.7000
  1  -2042.5449384354   7.123767089653 5.11224746  0.07122940  3.9677725 0.7000
  2  -2040.6057064913   1.939231944140 2.93203999  0.03157973  2.6378887 0.7000
  3  -2042.8459503901  -2.240243898842 3.82156611  0.03988952  1.9584283 0.7000
  4  -2043.1304456741  -0.284495284020 2.33010311  0.02819914  1.2483304 0.7000
  5  -2046.0421180430  -2.911672368852 2.76766177  0.02646895  0.9773195 0.7000
  6  -2047.9432587641  -1.901140721128 2.37165263  0.02226007  0.5798569 0.7000
  7  -2051.6631093491  -3.719850584972 1.59146414  0.01629670  0.4950929 0.7000
  8  -2054.5000875309  -2.836978181789 1.10440018  0.01149706  0.3712031 0.7000
  9  -2056.5275351726  -2.027447641703 0.78820951  0.00815737  0.2638051 0.7000
                               ***Turning on DIIS***
 10  -2057.9757982172  -1.448263044635 0.56514886  0.00577308  0.1820922 0.7000
 11  -2059.0094179253  -1.033619708062 0.40890832  0.00409445  0.1255349 0.7000
 12  -2059.7436509986  -0.734233073368 0.97002293  0.00964330  0.0893074 0.0000
 13  -2061.4903856321  -1.746734633450 0.00781095  0.00017372  0.0034195 0.0000
 14  -2061.4909972774  -0.000611645258 0.00661539  0.00009607  0.0021358 0.0000
 15  -2061.4912499357  -0.000252658374 0.00585563  0.00007744  0.0017968 0.0000
 16  -2061.4913865989  -0.000136663194 0.00546003  0.00005671  0.0014658 0.0000
 17  -2061.4914594554  -0.000072856488 0.00430107  0.00004855  0.0011737 0.0000
 18  -2061.4915034350  -0.000043979583 0.00772558  0.00007746  0.0008901 0.0000
               *** Restarting incremental Fock matrix formation ***
                                   *** Resetting DIIS ***
 19  -2061.4915528525  -0.000049417467 0.00296449  0.00004917  0.0005376 0.0000
 20  -2061.4915590750  -0.000006222538 0.00190690  0.00001448  0.0007620 0.0000
 21  -2061.4915621654  -0.000003090427 0.00153023  0.00001413  0.0004161 0.0000
 22  -2061.4915642142  -0.000002048741 0.00098218  0.00000808  0.0001559 0.0000
 23  -2061.4915648608  -0.000000646592 0.00075471  0.00000661  0.0000973 0.0000
 24  -2061.4915651415  -0.000000280754 0.00036319  0.00000309  0.0000426 0.0000
 25  -2061.4915651693  -0.000000027766 0.00011987  0.00000083  0.0000151 0.0000
 26  -2061.4915651675   0.000000001776 0.00003175  0.00000030  0.0000083 0.0000
 27  -2061.4915651632   0.000000004328 0.00001543  0.00000013  0.0000049 0.0000
 28  -2061.4915651646  -0.000000001416 0.00001296  0.00000011  0.0000045 0.0000
 29  -2061.4915651693  -0.000000004726 0.00000490  0.00000006  0.0000017 0.0000
 30  -2061.4915651615   0.000000007814 0.00000583  0.00000006  0.0000012 0.0000
                 **** Energy Check signals convergence ****

               *****************************************************
               *                     SUCCESS                       *
               *           SCF CONVERGED AFTER  31 CYCLES          *
               *****************************************************

Old exchange energy                            =    -72.209171599 Eh
New exchange energy                            =    -72.208993344 Eh
Exchange energy change after final integration =      0.000178255 Eh
Total energy after final integration           =  -2061.491386906 Eh
Final COS-X integration done in                =     4.798 sec

----------------
TOTAL SCF ENERGY
----------------

Total Energy       :        -2061.49138691 Eh          -56096.03250 eV

Components:
Nuclear Repulsion  :         1856.81809481 Eh           50526.58908 eV
Electronic Energy  :        -3918.30948172 Eh         -106622.62159 eV
One Electron Energy:        -6602.90545938 Eh         -179674.19201 eV
Two Electron Energy:         2684.59597766 Eh           73051.57042 eV
Max COSX asymmetry :            0.00001177 Eh               0.00032 eV

Virial components:
Potential Energy   :        -4036.81619981 Eh         -109847.35333 eV
Kinetic Energy     :         1975.32481291 Eh           53751.32082 eV
Virial Ratio       :            2.04362147


DFT components:
N(Alpha)           :       81.999602549684 electrons
N(Beta)            :       81.999602549684 electrons
N(Total)           :      163.999205099368 electrons
E(X)               :      -96.365865151435 Eh       
E(C)               :       -7.775085220959 Eh       
E(XC)              :     -104.140950372394 Eh       
DFET-embed. en.    :        0.000000000000 Eh       

---------------
SCF CONVERGENCE
---------------

  Last Energy change         ...    2.2419e-10  Tolerance :   1.0000e-08
  Last MAX-Density change    ...    0.0000e+00  Tolerance :   1.0000e-07
  Last RMS-Density change    ...    0.0000e+00  Tolerance :   5.0000e-09
  Last DIIS Error            ...    6.8550e-07  Tolerance :   5.0000e-07

             **** THE GBW FILE WAS UPDATED (reaction-2-ieip_optts_Compound_1.gbw) ****
             **** DENSITY reaction-2-ieip_optts_Compound_1.scfp WAS UPDATED ****
             **** ENERGY FILE WAS UPDATED (reaction-2-ieip_optts_Compound_1.en.tmp) ****
             **** THE GBW FILE WAS UPDATED (reaction-2-ieip_optts_Compound_1.gbw) ****
             **** DENSITY reaction-2-ieip_optts_Compound_1.scfp WAS UPDATED ****
----------------
ORBITAL ENERGIES
----------------

  NO   OCC          E(Eh)            E(eV) 
   0   2.0000    -102.098521     -2778.2420 
   1   2.0000    -102.079511     -2777.7247 
   2   2.0000    -102.064188     -2777.3078 
   3   2.0000     -14.599451      -397.2713 
   4   2.0000     -10.414744      -283.3996 
   5   2.0000     -10.410491      -283.2839 
   6   2.0000     -10.396413      -282.9008 
   7   2.0000     -10.389410      -282.7102 
   8   2.0000     -10.381668      -282.4996 
   9   2.0000     -10.378796      -282.4214 
  10   2.0000     -10.377984      -282.3993 
  11   2.0000     -10.374959      -282.3170 
  12   2.0000     -10.370477      -282.1950 
  13   2.0000     -10.361213      -281.9430 
  14   2.0000     -10.359441      -281.8947 
  15   2.0000     -10.347250      -281.5630 
  16   2.0000     -10.346460      -281.5415 
  17   2.0000      -9.562492      -260.2086 
  18   2.0000      -9.544121      -259.7087 
  19   2.0000      -9.529481      -259.3104 
  20   2.0000      -7.248593      -197.2442 
  21   2.0000      -7.243397      -197.1028 
  22   2.0000      -7.243124      -197.0954 
  23   2.0000      -7.230450      -196.7506 
  24   2.0000      -7.224833      -196.5977 
  25   2.0000      -7.224516      -196.5891 
  26   2.0000      -7.214502      -196.3166 
  27   2.0000      -7.210947      -196.2198 
  28   2.0000      -7.210450      -196.2063 
  29   2.0000      -3.524052       -95.8943 
  30   2.0000      -2.174698       -59.1765 
  31   2.0000      -2.164990       -58.9124 
  32   2.0000      -2.134319       -58.0778 
  33   2.0000      -0.996386       -27.1131 
  34   2.0000      -0.889093       -24.1934 
  35   2.0000      -0.852070       -23.1860 
  36   2.0000      -0.818440       -22.2709 
  37   2.0000      -0.784936       -21.3592 
  38   2.0000      -0.745893       -20.2968 
  39   2.0000      -0.728512       -19.8238 
  40   2.0000      -0.689711       -18.7680 
  41   2.0000      -0.673009       -18.3135 
  42   2.0000      -0.665875       -18.1194 
  43   2.0000      -0.650904       -17.7120 
  44   2.0000      -0.645718       -17.5709 
  45   2.0000      -0.614709       -16.7271 
  46   2.0000      -0.581343       -15.8192 
  47   2.0000      -0.533641       -14.5211 
  48   2.0000      -0.522405       -14.2154 
  49   2.0000      -0.501140       -13.6367 
  50   2.0000      -0.465108       -12.6562 
  51   2.0000      -0.464757       -12.6467 
  52   2.0000      -0.435251       -11.8438 
  53   2.0000      -0.419184       -11.4066 
  54   2.0000      -0.414116       -11.2687 
  55   2.0000      -0.407779       -11.0962 
  56   2.0000      -0.390997       -10.6396 
  57   2.0000      -0.387804       -10.5527 
  58   2.0000      -0.369348       -10.0505 
  59   2.0000      -0.348996        -9.4967 
  60   2.0000      -0.347013        -9.4427 
  61   2.0000      -0.322641        -8.7795 
  62   2.0000      -0.316580        -8.6146 
  63   2.0000      -0.303929        -8.2703 
  64   2.0000      -0.298344        -8.1184 
  65   2.0000      -0.271299        -7.3824 
  66   2.0000      -0.263805        -7.1785 
  67   2.0000      -0.250842        -6.8257 
  68   2.0000      -0.244788        -6.6610 
  69   2.0000      -0.231163        -6.2903 
  70   2.0000      -0.227709        -6.1963 
  71   2.0000      -0.216726        -5.8974 
  72   2.0000      -0.190452        -5.1825 
  73   2.0000      -0.179805        -4.8927 
  74   2.0000      -0.177530        -4.8308 
  75   2.0000      -0.164482        -4.4758 
  76   2.0000      -0.162363        -4.4181 
  77   2.0000      -0.155570        -4.2333 
  78   2.0000      -0.153010        -4.1636 
  79   2.0000      -0.142422        -3.8755 
  80   2.0000      -0.132917        -3.6169 
  81   2.0000      -0.120135        -3.2690 
  82   0.0000       0.042063         1.1446 
  83   0.0000       0.058085         1.5806 
  84   0.0000       0.072121         1.9625 
  85   0.0000       0.103380         2.8131 
  86   0.0000       0.136469         3.7135 
  87   0.0000       0.182773         4.9735 
  88   0.0000       0.192810         5.2466 
  89   0.0000       0.202154         5.5009 
  90   0.0000       0.219682         5.9779 
  91   0.0000       0.231352         6.2954 
  92   0.0000       0.236565         6.4373 
  93   0.0000       0.245590         6.6828 
  94   0.0000       0.252996         6.8844 
  95   0.0000       0.261651         7.1199 
  96   0.0000       0.278733         7.5847 
  97   0.0000       0.289074         7.8661 
  98   0.0000       0.300608         8.1800 
  99   0.0000       0.317950         8.6519 
 100   0.0000       0.322454         8.7744 
 101   0.0000       0.331585         9.0229 
 102   0.0000       0.343981         9.3602 
 103   0.0000       0.350347         9.5334 
 104   0.0000       0.362551         9.8655 
 105   0.0000       0.374453        10.1894 
 106   0.0000       0.388484        10.5712 
 107   0.0000       0.405119        11.0239 
 108   0.0000       0.406621        11.0647 
 109   0.0000       0.419906        11.4262 
 110   0.0000       0.427980        11.6459 
 111   0.0000       0.451792        12.2939 
 112   0.0000       0.465836        12.6760 
 113   0.0000       0.495491        13.4830 
 114   0.0000       0.502301        13.6683 
 115   0.0000       0.522277        14.2119 
 116   0.0000       0.537371        14.6226 
 117   0.0000       0.558609        15.2005 
 118   0.0000       0.580125        15.7860 
 119   0.0000       0.582683        15.8556 
 120   0.0000       0.597253        16.2521 
 121   0.0000       0.602394        16.3920 
 122   0.0000       0.607383        16.5277 
 123   0.0000       0.620322        16.8798 
 124   0.0000       0.626079        17.0365 
 125   0.0000       0.636277        17.3140 
 126   0.0000       0.644061        17.5258 
 127   0.0000       0.650656        17.7053 
 128   0.0000       0.657788        17.8993 
 129   0.0000       0.667560        18.1652 
 130   0.0000       0.677969        18.4485 
 131   0.0000       0.685865        18.6633 
 132   0.0000       0.687766        18.7151 
 133   0.0000       0.697993        18.9934 
 134   0.0000       0.704070        19.1587 
 135   0.0000       0.706000        19.2112 
 136   0.0000       0.714487        19.4422 
 137   0.0000       0.730502        19.8780 
 138   0.0000       0.733627        19.9630 
 139   0.0000       0.737282        20.0625 
 140   0.0000       0.739930        20.1345 
 141   0.0000       0.758242        20.6328 
 142   0.0000       0.764897        20.8139 
 143   0.0000       0.766883        20.8680 
 144   0.0000       0.778805        21.1924 
 145   0.0000       0.798744        21.7349 
 146   0.0000       0.809165        22.0185 
 147   0.0000       0.812629        22.1128 
 148   0.0000       0.830518        22.5995 
 149   0.0000       0.842371        22.9221 
 150   0.0000       0.854909        23.2633 
 151   0.0000       0.865699        23.5569 
 152   0.0000       0.875189        23.8151 
 153   0.0000       0.897702        24.4277 
 154   0.0000       0.905247        24.6330 
 155   0.0000       0.920257        25.0415 
 156   0.0000       0.931531        25.3482 
 157   0.0000       0.943452        25.6726 
 158   0.0000       0.953696        25.9514 
 159   0.0000       0.969203        26.3734 
 160   0.0000       0.985347        26.8126 
 161   0.0000       0.996750        27.1229 
 162   0.0000       1.012596        27.5541 
 163   0.0000       1.018452        27.7135 
 164   0.0000       1.025114        27.8948 
 165   0.0000       1.034989        28.1635 
 166   0.0000       1.037960        28.2443 
 167   0.0000       1.045924        28.4610 
 168   0.0000       1.047443        28.5024 
 169   0.0000       1.055724        28.7277 
 170   0.0000       1.057759        28.7831 
 171   0.0000       1.059848        28.8399 
 172   0.0000       1.061447        28.8835 
 173   0.0000       1.066515        29.0214 
 174   0.0000       1.070409        29.1273 
 175   0.0000       1.075121        29.2555 
 176   0.0000       1.083536        29.4845 
 177   0.0000       1.085737        29.5444 
 178   0.0000       1.091451        29.6999 
 179   0.0000       1.096630        29.8408 
 180   0.0000       1.102040        29.9880 
 181   0.0000       1.109027        30.1782 
 182   0.0000       1.117062        30.3968 
 183   0.0000       1.126258        30.6470 
 184   0.0000       1.139838        31.0166 
 185   0.0000       1.144895        31.1542 
 186   0.0000       1.151166        31.3248 
 187   0.0000       1.162210        31.6253 
 188   0.0000       1.177857        32.0511 
 189   0.0000       1.185719        32.2650 
 190   0.0000       1.198269        32.6066 
 191   0.0000       1.206045        32.8182 
 192   0.0000       1.216850        33.1122 
 193   0.0000       1.228411        33.4268 
 194   0.0000       1.232820        33.5467 
 195   0.0000       1.243306        33.8321 
 196   0.0000       1.256570        34.1930 
 197   0.0000       1.279168        34.8079 
 198   0.0000       1.285495        34.9801 
 199   0.0000       1.293534        35.1988 
 200   0.0000       1.317300        35.8456 
 201   0.0000       1.327036        36.1105 
 202   0.0000       1.336000        36.3544 
 203   0.0000       1.345758        36.6199 
 204   0.0000       1.359610        36.9969 
 205   0.0000       1.369957        37.2784 
 206   0.0000       1.396323        37.9959 
 207   0.0000       1.405528        38.2464 
 208   0.0000       1.437034        39.1037 
 209   0.0000       1.453472        39.5510 
 210   0.0000       1.468662        39.9643 
 211   0.0000       1.497137        40.7392 
 212   0.0000       1.499706        40.8091 
 213   0.0000       1.526548        41.5395 
 214   0.0000       1.530090        41.6359 
 215   0.0000       1.536982        41.8234 
 216   0.0000       1.559761        42.4433 
 217   0.0000       1.563842        42.5543 
 218   0.0000       1.570020        42.7224 
 219   0.0000       1.585148        43.1341 
 220   0.0000       1.600079        43.5404 
 221   0.0000       1.610562        43.8256 
 222   0.0000       1.619164        44.0597 
 223   0.0000       1.647412        44.8284 
 224   0.0000       1.651834        44.9487 
 225   0.0000       1.655801        45.0566 
 226   0.0000       1.679778        45.7091 
 227   0.0000       1.682959        45.7956 
 228   0.0000       1.717604        46.7384 
 229   0.0000       1.764945        48.0266 
 230   0.0000       1.828151        49.7465 
 231   0.0000       1.876879        51.0725 
 232   0.0000       1.891905        51.4814 
 233   0.0000       1.905113        51.8408 
 234   0.0000       1.929400        52.5016 
 235   0.0000       1.949515        53.0490 
 236   0.0000       1.981971        53.9322 
 237   0.0000       1.987759        54.0897 
 238   0.0000       2.005068        54.5607 
 239   0.0000       2.038263        55.4640 
 240   0.0000       2.059810        56.0503 
 241   0.0000       2.087768        56.8111 
 242   0.0000       2.094641        56.9981 
 243   0.0000       2.127709        57.8979 
 244   0.0000       2.139021        58.2057 
 245   0.0000       2.146289        58.4035 
 246   0.0000       2.172667        59.1213 
 247   0.0000       2.199560        59.8531 
 248   0.0000       2.254381        61.3448 
 249   0.0000       2.260598        61.5140 
 250   0.0000       2.286175        62.2100 
 251   0.0000       2.311287        62.8933 
 252   0.0000       2.344182        63.7884 
 253   0.0000       2.350656        63.9646 
 254   0.0000       2.368247        64.4433 
 255   0.0000       2.372648        64.5630 
 256   0.0000       2.378260        64.7158 
 257   0.0000       2.398517        65.2670 
 258   0.0000       2.406023        65.4712 
 259   0.0000       2.424474        65.9733 
 260   0.0000       2.442858        66.4735 
 261   0.0000       2.453502        66.7632 
 262   0.0000       2.463179        67.0265 
 263   0.0000       2.498768        67.9949 
 264   0.0000       2.511234        68.3342 
 265   0.0000       2.563375        69.7530 
 266   0.0000       2.571031        69.9613 
 267   0.0000       2.586094        70.3712 
 268   0.0000       2.589396        70.4610 
 269   0.0000       2.604344        70.8678 
 270   0.0000       2.614074        71.1326 
 271   0.0000       2.619756        71.2872 
 272   0.0000       2.639120        71.8141 
 273   0.0000       2.677317        72.8535 
 274   0.0000       2.690022        73.1992 
 275   0.0000       2.733514        74.3827 
 276   0.0000       2.757945        75.0475 
 277   0.0000       2.779806        75.6424 
 278   0.0000       2.787407        75.8492 
 279   0.0000       2.797747        76.1306 
 280   0.0000       2.804990        76.3276 
 281   0.0000       2.810549        76.4789 
 282   0.0000       2.846558        77.4588 
 283   0.0000       2.863978        77.9328 
 284   0.0000       2.885385        78.5153 
 285   0.0000       2.902813        78.9896 
 286   0.0000       2.932827        79.8063 
 287   0.0000       2.960606        80.5622 
 288   0.0000       2.986991        81.2802 
 289   0.0000       2.992156        81.4207 
 290   0.0000       3.042138        82.7808 
 291   0.0000       3.050037        82.9957 
 292   0.0000       3.126386        85.0733 
 293   0.0000       3.175141        86.4000 
 294   0.0000       3.197089        86.9972 
 295   0.0000       3.495364        95.1137 
 296   0.0000       3.593742        97.7907 
 297   0.0000       3.674572        99.9902 
 298   0.0000      13.321757       362.5034 
 299   0.0000      13.552175       368.7734 
 300   0.0000      13.632494       370.9590 
 301   0.0000      13.829821       376.3286 
 302   0.0000      13.875170       377.5626 
 303   0.0000      13.908774       378.4770 
 304   0.0000      14.108517       383.9123 
 305   0.0000      14.234202       387.3323 
 306   0.0000      14.257990       387.9796 
 307   0.0000      14.325527       389.8174 
 308   0.0000      14.423453       392.4821 
 309   0.0000      14.585488       396.8913 
 310   0.0000      14.632524       398.1712 
 311   0.0000      19.639255       534.4113 
 312   0.0000      51.745855      1408.0763 

                    ********************************
                    * MULLIKEN POPULATION ANALYSIS *
                    ********************************

-----------------------
MULLIKEN ATOMIC CHARGES
-----------------------
   0 Pd:    0.228128
   1 Cl:   -0.324220
   2 Cl:   -0.488640
   3 Cl:   -0.373916
   4 N :   -0.570196
   5 C :    0.050084
   6 C :   -0.330829
   7 C :   -0.156340
   8 C :    0.377190
   9 C :    0.046464
  10 H :    0.211619
  11 H :    0.285089
  12 H :    0.221027
  13 C :    0.020491
  14 C :   -0.299518
  15 C :   -0.286437
  16 C :    0.149725
  17 H :    0.196035
  18 H :    0.196504
  19 C :   -0.296351
  20 C :   -0.319315
  21 C :   -0.246929
  22 C :   -0.193592
  23 H :    0.190926
  24 H :    0.197456
  25 H :    0.273748
  26 H :    0.241797
Sum of atomic charges:   -1.0000000

--------------------------------
MULLIKEN REDUCED ORBITAL CHARGES
--------------------------------
  0 Pds       :     2.479477  s :     2.479477
      pz      :     2.144283  p :     6.440094
      px      :     2.151153
      py      :     2.144658
      dz2     :     1.976006  d :     8.848617
      dxz     :     1.644108
      dyz     :     1.881801
      dx2y2   :     1.889594
      dxy     :     1.457108
      f0      :     0.000463  f :     0.003684
      f+1     :     0.000241
      f-1     :     0.000231
      f+2     :     0.000392
      f-2     :     0.000991
      f+3     :     0.000782
      f-3     :     0.000584
  1 Cls       :     5.927668  s :     5.927668
      pz      :     3.856848  p :    11.382065
      px      :     3.820207
      py      :     3.705010
      dz2     :     0.002052  d :     0.014487
      dxz     :     0.002290
      dyz     :     0.003157
      dx2y2   :     0.002868
      dxy     :     0.004120
  2 Cls       :     5.956519  s :     5.956519
      pz      :     3.832818  p :    11.522886
      px      :     3.935127
      py      :     3.754940
      dz2     :     0.000360  d :     0.009235
      dxz     :     0.000335
      dyz     :     0.005038
      dx2y2   :     0.002704
      dxy     :     0.000797
  3 Cls       :     5.942657  s :     5.942657
      pz      :     3.905733  p :    11.416990
      px      :     3.704844
      py      :     3.806412
      dz2     :     0.001933  d :     0.014268
      dxz     :     0.003048
      dyz     :     0.001446
      dx2y2   :     0.003610
      dxy     :     0.004232
  4 N s       :     3.647322  s :     3.647322
      pz      :     1.185558  p :     3.877470
      px      :     1.255957
      py      :     1.435954
      dz2     :     0.010467  d :     0.045404
      dxz     :     0.008987
      dyz     :     0.011107
      dx2y2   :     0.007688
      dxy     :     0.007156
  5 C s       :     3.142592  s :     3.142592
      pz      :     0.903381  p :     2.747116
      px      :     0.942281
      py      :     0.901454
      dz2     :     0.014291  d :     0.060207
      dxz     :     0.012922
      dyz     :     0.015788
      dx2y2   :     0.007794
      dxy     :     0.009412
  6 C s       :     3.282813  s :     3.282813
      pz      :     1.078596  p :     3.009363
      px      :     0.980500
      py      :     0.950268
      dz2     :     0.008970  d :     0.038653
      dxz     :     0.006401
      dyz     :     0.009614
      dx2y2   :     0.006889
      dxy     :     0.006779
  7 C s       :     3.257746  s :     3.257746
      pz      :     0.926658  p :     2.857310
      px      :     0.946716
      py      :     0.983936
      dz2     :     0.010586  d :     0.041284
      dxz     :     0.007258
      dyz     :     0.009555
      dx2y2   :     0.007185
      dxy     :     0.006701
  8 C s       :     3.147675  s :     3.147675
      pz      :     0.817015  p :     2.411012
      px      :     0.827869
      py      :     0.766127
      dz2     :     0.013392  d :     0.064124
      dxz     :     0.012303
      dyz     :     0.014039
      dx2y2   :     0.011877
      dxy     :     0.012512
  9 C s       :     3.217121  s :     3.217121
      pz      :     0.867090  p :     2.690815
      px      :     0.970693
      py      :     0.853032
      dz2     :     0.010764  d :     0.045601
      dxz     :     0.008093
      dyz     :     0.010992
      dx2y2   :     0.008122
      dxy     :     0.007630
 10 H s       :     0.788381  s :     0.788381
 11 H s       :     0.714911  s :     0.714911
 12 H s       :     0.778973  s :     0.778973
 13 C s       :     3.261825  s :     3.261825
      pz      :     0.894498  p :     2.671951
      px      :     0.955403
      py      :     0.822050
      dz2     :     0.009125  d :     0.045733
      dxz     :     0.006199
      dyz     :     0.013956
      dx2y2   :     0.007376
      dxy     :     0.009078
 14 C s       :     3.282812  s :     3.282812
      pz      :     0.957467  p :     2.976412
      px      :     1.002903
      py      :     1.016042
      dz2     :     0.010084  d :     0.040294
      dxz     :     0.007856
      dyz     :     0.009587
      dx2y2   :     0.006624
      dxy     :     0.006142
 15 C s       :     3.293970  s :     3.293970
      pz      :     0.988486  p :     2.951687
      px      :     0.996976
      py      :     0.966225
      dz2     :     0.008385  d :     0.040780
      dxz     :     0.008487
      dyz     :     0.010718
      dx2y2   :     0.005587
      dxy     :     0.007604
 16 C s       :     3.214092  s :     3.214092
      pz      :     0.862973  p :     2.589667
      px      :     0.922722
      py      :     0.803972
      dz2     :     0.010771  d :     0.046516
      dxz     :     0.008003
      dyz     :     0.011515
      dx2y2   :     0.008089
      dxy     :     0.008138
 17 H s       :     0.803965  s :     0.803965
 18 H s       :     0.803496  s :     0.803496
 19 C s       :     3.358443  s :     3.358443
      pz      :     1.024896  p :     2.901237
      px      :     0.965847
      py      :     0.910495
      dz2     :     0.010041  d :     0.036672
      dxz     :     0.005660
      dyz     :     0.008181
      dx2y2   :     0.006652
      dxy     :     0.006138
 20 C s       :     3.293688  s :     3.293688
      pz      :     0.980988  p :     2.985615
      px      :     1.029382
      py      :     0.975245
      dz2     :     0.007498  d :     0.040013
      dxz     :     0.007558
      dyz     :     0.011094
      dx2y2   :     0.005720
      dxy     :     0.008143
 21 C s       :     3.279972  s :     3.279972
      pz      :     0.916017  p :     2.926307
      px      :     0.933310
      py      :     1.076980
      dz2     :     0.009657  d :     0.040649
      dxz     :     0.007548
      dyz     :     0.010568
      dx2y2   :     0.007511
      dxy     :     0.005366
 22 C s       :     3.240266  s :     3.240266
      pz      :     1.006115  p :     2.912729
      px      :     0.974183
      py      :     0.932432
      dz2     :     0.008430  d :     0.040597
      dxz     :     0.005753
      dyz     :     0.011010
      dx2y2   :     0.007779
      dxy     :     0.007625
 23 H s       :     0.809074  s :     0.809074
 24 H s       :     0.802544  s :     0.802544
 25 H s       :     0.726252  s :     0.726252
 26 H s       :     0.758203  s :     0.758203


                     *******************************
                     * LOEWDIN POPULATION ANALYSIS *
                     *******************************

----------------------
LOEWDIN ATOMIC CHARGES
----------------------
   0 Pd:   -0.842265
   1 Cl:   -0.063513
   2 Cl:   -0.404863
   3 Cl:   -0.095899
   4 N :    0.039570
   5 C :    0.010143
   6 C :   -0.166023
   7 C :   -0.085799
   8 C :    0.092067
   9 C :   -0.054131
  10 H :    0.135728
  11 H :    0.167979
  12 H :    0.141275
  13 C :   -0.018482
  14 C :   -0.140886
  15 C :   -0.116279
  16 C :   -0.034701
  17 H :    0.130948
  18 H :    0.131588
  19 C :   -0.124957
  20 C :   -0.142432
  21 C :   -0.107698
  22 C :   -0.129823
  23 H :    0.125834
  24 H :    0.128168
  25 H :    0.274167
  26 H :    0.150284

[...]
   75     -2061.539111   -30.196221    0.002593  0.000575
 ** NOTE ** -> element pd will be treated as ni
 ** NOTE ** -> element pd will be treated as ni
 ** NOTE ** -> element pd will be treated as ni
 ** NOTE ** -> element pd will be treated as ni
   76     -2061.539188   -30.244380    0.002595  0.000509
 ** NOTE ** -> element pd will be treated as ni
 ** NOTE ** -> element pd will be treated as ni
 ** NOTE ** -> element pd will be treated as ni
 ** NOTE ** -> element pd will be treated as ni
   77     -2061.539271   -30.296643    0.002596  0.000507
 ** NOTE ** -> element pd will be treated as ni
 ** NOTE ** -> element pd will be treated as ni
 ** NOTE ** -> element pd will be treated as ni
 ** NOTE ** -> element pd will be treated as ni
   78     -2061.539353   -30.348452    0.002593  0.000505
 ** NOTE ** -> element pd will be treated as ni
 ** NOTE ** -> element pd will be treated as ni
 ** NOTE ** -> element pd will be treated as ni
 ** NOTE ** -> element pd will be treated as ni
   79     -2061.539435   -30.399664    0.002588  0.000504
 ** NOTE ** -> element pd will be treated as ni
 ** NOTE ** -> element pd will be treated as ni
 ** NOTE ** -> element pd will be treated as ni
 ** NOTE ** -> element pd will be treated as ni
   80     -2061.539516   -30.450329    0.002579  0.000502
 ** NOTE ** -> element pd will be treated as ni
 ** NOTE ** -> element pd will be treated as ni
 ** NOTE ** -> element pd will be treated as ni
 ** NOTE ** -> element pd will be treated as ni
   81     -2061.539596   -30.500529    0.002566  0.000500
 ** NOTE ** -> element pd will be treated as ni
 ** NOTE ** -> element pd will be treated as ni
 ** NOTE ** -> element pd will be treated as ni
 ** NOTE ** -> element pd will be treated as ni
   82     -2061.539675   -30.550160    0.002550  0.000498
 ** NOTE ** -> element pd will be treated as ni
 ** NOTE ** -> element pd will be treated as ni
 ** NOTE ** -> element pd will be treated as ni
 ** NOTE ** -> element pd will be treated as ni
   83     -2061.539753   -30.599260    0.002531  0.000496
 ** NOTE ** -> element pd will be treated as ni
 ** NOTE ** -> element pd will be treated as ni
 ** NOTE ** -> element pd will be treated as ni
 ** NOTE ** -> element pd will be treated as ni
   84     -2061.539831   -30.647867    0.002507  0.000494
 ** NOTE ** -> element pd will be treated as ni
 ** NOTE ** -> element pd will be treated as ni
 ** NOTE ** -> element pd will be treated as ni
 ** NOTE ** -> element pd will be treated as ni
   85     -2061.539907   -30.695970    0.002480  0.000491
 ** NOTE ** -> element pd will be treated as ni
 ** NOTE ** -> element pd will be treated as ni
 ** NOTE ** -> element pd will be treated as ni
 ** NOTE ** -> element pd will be treated as ni
   86     -2061.539983   -30.743625    0.002449  0.000488
 ** NOTE ** -> element pd will be treated as ni
 ** NOTE ** -> element pd will be treated as ni
 ** NOTE ** -> element pd will be treated as ni
 ** NOTE ** -> element pd will be treated as ni
   87     -2061.540058   -30.790643    0.002415  0.000485
 ** NOTE ** -> element pd will be treated as ni
 ** NOTE ** -> element pd will be treated as ni
 ** NOTE ** -> element pd will be treated as ni
 ** NOTE ** -> element pd will be treated as ni
   88     -2061.540132   -30.837300    0.002376  0.000482
 ** NOTE ** -> element pd will be treated as ni
 ** NOTE ** -> element pd will be treated as ni
 ** NOTE ** -> element pd will be treated as ni
 ** NOTE ** -> element pd will be treated as ni
   89     -2061.540206   -30.883395    0.002336  0.000478
 ** NOTE ** -> element pd will be treated as ni
 ** NOTE ** -> element pd will be treated as ni
 ** NOTE ** -> element pd will be treated as ni
 ** NOTE ** -> element pd will be treated as ni
   90     -2061.540279   -30.929050    0.002291  0.000474
 ** NOTE ** -> element pd will be treated as ni
 ** NOTE ** -> element pd will be treated as ni
 ** NOTE ** -> element pd will be treated as ni
 ** NOTE ** -> element pd will be treated as ni
   91     -2061.540351   -30.974154    0.002244  0.000470
 ** NOTE ** -> element pd will be treated as ni
 ** NOTE ** -> element pd will be treated as ni
 ** NOTE ** -> element pd will be treated as ni
 ** NOTE ** -> element pd will be treated as ni
   92     -2061.540422   -31.018841    0.002194  0.000466
 ** NOTE ** -> element pd will be treated as ni
 ** NOTE ** -> element pd will be treated as ni
 ** NOTE ** -> element pd will be treated as ni
 ** NOTE ** -> element pd will be treated as ni
   93     -2061.540492   -31.062997    0.002142  0.000461
 ** NOTE ** -> element pd will be treated as ni
 ** NOTE ** -> element pd will be treated as ni
 ** NOTE ** -> element pd will be treated as ni
 ** NOTE ** -> element pd will be treated as ni
   94     -2061.540562   -31.106710    0.002130  0.000457
 ** NOTE ** -> element pd will be treated as ni
 ** NOTE ** -> element pd will be treated as ni
 ** NOTE ** -> element pd will be treated as ni
 ** NOTE ** -> element pd will be treated as ni
   95     -2061.540631   -31.149893    0.002125  0.000451
 ** NOTE ** -> element pd will be treated as ni
 ** NOTE ** -> element pd will be treated as ni
 ** NOTE ** -> element pd will be treated as ni
 ** NOTE ** -> element pd will be treated as ni
   96     -2061.540699   -31.192631    0.002119  0.000446
 ** NOTE ** -> element pd will be treated as ni
 ** NOTE ** -> element pd will be treated as ni
 ** NOTE ** -> element pd will be treated as ni
 ** NOTE ** -> element pd will be treated as ni
   97     -2061.540766   -31.234773    0.002111  0.000441
 ** NOTE ** -> element pd will be treated as ni
 ** NOTE ** -> element pd will be treated as ni
 ** NOTE ** -> element pd will be treated as ni
 ** NOTE ** -> element pd will be treated as ni
   98     -2061.540832   -31.276506    0.002102  0.000435
 ** NOTE ** -> element pd will be treated as ni
 ** NOTE ** -> element pd will be treated as ni
 ** NOTE ** -> element pd will be treated as ni
 ** NOTE ** -> element pd will be treated as ni
   99     -2061.540898   -31.317725    0.002091  0.000430
 ** NOTE ** -> element pd will be treated as ni
 ** NOTE ** -> element pd will be treated as ni
 ** NOTE ** -> element pd will be treated as ni
 ** NOTE ** -> element pd will be treated as ni
  100     -2061.540963   -31.358436    0.002078  0.000424
 ** NOTE ** -> element pd will be treated as ni
 ** NOTE ** -> element pd will be treated as ni
 ** NOTE ** -> element pd will be treated as ni
 ** NOTE ** -> element pd will be treated as ni
  101     -2061.541027   -31.398670    0.002063  0.000419
 ** NOTE ** -> element pd will be treated as ni
 ** NOTE ** -> element pd will be treated as ni
 ** NOTE ** -> element pd will be treated as ni
 ** NOTE ** -> element pd will be treated as ni
  102     -2061.541090   -31.438300    0.002047  0.000412
 ** NOTE ** -> element pd will be treated as ni
 ** NOTE ** -> element pd will be treated as ni
 ** NOTE ** -> element pd will be treated as ni
 ** NOTE ** -> element pd will be treated as ni
  103     -2061.541153   -31.477529    0.002029  0.000407
 ** NOTE ** -> element pd will be treated as ni
 ** NOTE ** -> element pd will be treated as ni
 ** NOTE ** -> element pd will be treated as ni
 ** NOTE ** -> element pd will be treated as ni
  104     -2061.541214   -31.516144    0.002009  0.000399
 ** NOTE ** -> element pd will be treated as ni
 ** NOTE ** -> element pd will be treated as ni
 ** NOTE ** -> element pd will be treated as ni
 ** NOTE ** -> element pd will be treated as ni
  105     -2061.541275   -31.554353    0.001987  0.000394

                      ***********************HURRAY********************
                      ***            THE IRC HAS CONVERGED          ***
                      *************************************************


---------------------------------------------------------------
                       IRC PATH SUMMARY              
---------------------------------------------------------------
All gradients are in Eh/Bohr.

Step        E(Eh)      dE(kcal/mol)  max(|G|)   RMS(G) 
   1     -2061.541275   -31.554353    0.001987  0.000394
   2     -2061.541214   -31.516144    0.002009  0.000399
   3     -2061.541153   -31.477529    0.002029  0.000407
   4     -2061.541090   -31.438300    0.002047  0.000412
   5     -2061.541027   -31.398670    0.002063  0.000419
   6     -2061.540963   -31.358436    0.002078  0.000424
   7     -2061.540898   -31.317725    0.002091  0.000430
   8     -2061.540832   -31.276506    0.002102  0.000435
   9     -2061.540766   -31.234773    0.002111  0.000441
  10     -2061.540699   -31.192631    0.002119  0.000446
  11     -2061.540631   -31.149893    0.002125  0.000451
  12     -2061.540562   -31.106710    0.002130  0.000457
  13     -2061.540492   -31.062997    0.002142  0.000461
  14     -2061.540422   -31.018841    0.002194  0.000466
  15     -2061.540351   -30.974154    0.002244  0.000470
  16     -2061.540279   -30.929050    0.002291  0.000474
  17     -2061.540206   -30.883395    0.002336  0.000478
  18     -2061.540132   -30.837300    0.002376  0.000482
  19     -2061.540058   -30.790643    0.002415  0.000485
  20     -2061.539983   -30.743625    0.002449  0.000488
  21     -2061.539907   -30.695970    0.002480  0.000491
  22     -2061.539831   -30.647867    0.002507  0.000494
  23     -2061.539753   -30.599260    0.002531  0.000496
  24     -2061.539675   -30.550160    0.002550  0.000498
  25     -2061.539596   -30.500529    0.002566  0.000500
  26     -2061.539516   -30.450329    0.002579  0.000502
  27     -2061.539435   -30.399664    0.002588  0.000504
  28     -2061.539353   -30.348452    0.002593  0.000505
  29     -2061.539271   -30.296643    0.002596  0.000507
  30     -2061.539188   -30.244380    0.002595  0.000509
  31     -2061.539111   -30.196221    0.002593  0.000575
  32     -2061.539056   -30.162092    0.002589  0.000677
  33     -2061.538911   -30.070877    0.002577  0.000587
  34     -2061.538748   -29.968796    0.002555  0.000547
  35     -2061.538574   -29.859395    0.002529  0.000531
  36     -2061.538395   -29.746832    0.002499  0.000534
  37     -2061.538210   -29.631051    0.002469  0.000537
  38     -2061.538022   -29.513257    0.002486  0.000546
  39     -2061.537831   -29.392878    0.002592  0.000555
  40     -2061.537635   -29.270307    0.002715  0.000568
  41     -2061.537436   -29.145059    0.002853  0.000580
  42     -2061.537232   -29.017235    0.003009  0.000595
  43     -2061.537024   -28.886831    0.003175  0.000611
  44     -2061.536811   -28.753386    0.003356  0.000629
  45     -2061.536595   -28.617380    0.003544  0.000649
  46     -2061.536373   -28.478421    0.003740  0.000670
  47     -2061.536148   -28.336841    0.003938  0.000693
  48     -2061.535917   -28.192043    0.004138  0.000716
  49     -2061.535683   -28.045505    0.004335  0.000746
  50     -2061.535443   -27.894604    0.004528  0.000765
  51     -2061.535199   -27.741652    0.004716  0.000794
  52     -2061.534949   -27.584514    0.004894  0.000813
  53     -2061.534694   -27.424733    0.005063  0.000840
  54     -2061.534433   -27.261005    0.005216  0.000860
  55     -2061.534167   -27.094064    0.005357  0.000883
  56     -2061.533895   -26.923230    0.005479  0.000901
  57     -2061.533617   -26.748982    0.005585  0.000921
  58     -2061.533333   -26.570873    0.005671  0.000938
  59     -2061.533044   -26.388977    0.005740  0.000954
  60     -2061.532748   -26.203210    0.005791  0.000969
  61     -2061.532445   -26.013523    0.005829  0.000983
  62     -2061.532137   -25.820097    0.005853  0.000996
  63     -2061.531822   -25.622631    0.005867  0.001008
  64     -2061.531502   -25.421639    0.005873  0.001022
  65     -2061.531175   -25.216300    0.005872  0.001030
  66     -2061.530841   -25.006883    0.005866  0.001040
  67     -2061.530530   -24.811395    0.005859  0.001172
  68     -2061.530263   -24.644029    0.005855  0.001242
  69     -2061.529615   -24.237413    0.005830  0.001154
  70     -2061.528936   -23.811436    0.005806  0.001166
  71     -2061.528212   -23.356968    0.005788  0.001148
  72     -2061.527462   -22.886330    0.005778  0.001168
  73     -2061.526680   -22.395635    0.005787  0.001178
  74     -2061.525871   -21.888099    0.005815  0.001201
  75     -2061.525034   -21.363203    0.005868  0.001225
  76     -2061.524169   -20.819990    0.005943  0.001253
  77     -2061.523276   -20.259720    0.006046  0.001287
  78     -2061.522351   -19.679381    0.006167  0.001321
  79     -2061.521402   -19.083751    0.006310  0.001369
  80     -2061.520418   -18.466202    0.006462  0.001408
  81     -2061.519406   -17.831298    0.006626  0.001462
  82     -2061.518359   -17.174277    0.006783  0.001514
  83     -2061.517280   -16.497171    0.006938  0.001575
  84     -2061.516162   -15.795905    0.007066  0.001635
  85     -2061.515013   -15.074719    0.007173  0.001708
  86     -2061.513820   -14.326017    0.007233  0.001767
  87     -2061.512596   -13.557988    0.007260  0.001839
  88     -2061.511333   -12.765515    0.007230  0.001891
  89     -2061.510045   -11.957218    0.007644  0.001947
  90     -2061.508727   -11.129900    0.008090  0.001977
  91     -2061.507393   -10.292832    0.008442  0.001999
  92     -2061.506055   -9.453700    0.008637  0.002002
  93     -2061.504727   -8.619914    0.008694  0.001982
  94     -2061.503421   -7.800661    0.008556  0.001939
  95     -2061.502157   -7.007467    0.008336  0.001880
  96     -2061.500949   -6.249453    0.007882  0.001809
  97     -2061.499817   -5.539265    0.007543  0.001742
  98     -2061.498766   -4.879582    0.006860  0.001666
  99     -2061.497808   -4.278357    0.006602  0.001604
 100     -2061.496934   -3.729919    0.005982  0.001525
 101     -2061.496143   -3.233796    0.005722  0.001449
 102     -2061.495423   -2.782006    0.005237  0.001356
 103     -2061.494748   -2.358507    0.005098  0.001223
 104     -2061.494107   -1.956008    0.004551  0.001120
 105     -2061.493517   -1.585746    0.005653  0.001223
 106     -2061.493214   -1.395915    0.006484  0.001714
 107     -2061.490990    0.000000    0.000103  0.000044 <= TS
 108     -2061.491864   -0.548509    0.006190  0.001311
 109     -2061.492038   -0.657923    0.003799  0.000933
 110     -2061.492160   -0.734463    0.003868  0.000794
 111     -2061.492347   -0.851258    0.003884  0.000677
 112     -2061.492543   -0.974729    0.003793  0.000665
 113     -2061.492748   -1.103103    0.003917  0.000687
 114     -2061.492966   -1.240025    0.004028  0.000737
 115     -2061.493205   -1.389820    0.004305  0.000797
 116     -2061.493472   -1.557310    0.004577  0.000888
 117     -2061.493772   -1.745833    0.004955  0.000989
 118     -2061.494117   -1.962205    0.005696  0.001133
 119     -2061.494509   -2.208018    0.006745  0.001280
 120     -2061.494963   -2.492990    0.007965  0.001479
 121     -2061.495479   -2.816816    0.009307  0.001670
 122     -2061.496074   -3.190451    0.010782  0.001915
 123     -2061.496742   -3.609532    0.012285  0.002131
 124     -2061.497496   -4.082641    0.013780  0.002384
 125     -2061.498318   -4.598589    0.015107  0.002573
 126     -2061.499212   -5.159128    0.016214  0.002764
 127     -2061.500151   -5.748769    0.017015  0.002881
 128     -2061.501132   -6.363964    0.017521  0.002977
 129     -2061.502132   -6.991479    0.017715  0.003016
 130     -2061.503141   -7.624745    0.017602  0.003021
 131     -2061.504147   -8.256142    0.017136  0.002992
 132     -2061.505137   -8.877675    0.016369  0.002927
 133     -2061.506100   -9.481963    0.015343  0.002835
 134     -2061.507029   -10.064949    0.014143  0.002726
 135     -2061.507920   -10.623741    0.012876  0.002613
 136     -2061.508773   -11.158846    0.011660  0.002504
 137     -2061.509588   -11.670140    0.010578  0.002405
 138     -2061.510367   -12.159378    0.009675  0.002321
 139     -2061.511110   -12.625317    0.008969  0.002218
 140     -2061.511828   -13.076234    0.008341  0.002147
 141     -2061.512513   -13.505927    0.007839  0.002047
 142     -2061.513179   -13.923882    0.007367  0.001986
 143     -2061.513813   -14.321953    0.006973  0.001895
 144     -2061.514431   -14.709476    0.006591  0.001842
 145     -2061.515019   -15.078678    0.006261  0.001757
 146     -2061.515594   -15.438949    0.005936  0.001709
 147     -2061.516141   -15.782445    0.005656  0.001633
 148     -2061.516675   -16.117801    0.005498  0.001591
 149     -2061.517185   -16.437635    0.005337  0.001520
 150     -2061.517684   -16.750441    0.005180  0.001480
 151     -2061.518160   -17.049140    0.005022  0.001416
 152     -2061.518625   -17.341085    0.004868  0.001381
 153     -2061.519069   -17.619774    0.004716  0.001320
 154     -2061.519504   -17.892674    0.004567  0.001286
 155     -2061.519919   -18.153491    0.004421  0.001232
 156     -2061.520326   -18.408451    0.004278  0.001202
 157     -2061.520714   -18.651869    0.004138  0.001149
 158     -2061.521094   -18.890475    0.004001  0.001118
 159     -2061.521458   -19.118736    0.003867  0.001071
 160     -2061.521813   -19.341594    0.003735  0.001048
 161     -2061.522151   -19.554106    0.003608  0.000999
 162     -2061.522484   -19.762723    0.003482  0.000972
 163     -2061.522802   -19.962340    0.003360  0.000932
 164     -2061.523111   -20.156462    0.003240  0.000902
 165     -2061.523410   -20.343764    0.003123  0.000869
 166     -2061.523699   -20.525199    0.003008  0.000839
 167     -2061.523979   -20.700595    0.002895  0.000809
 168     -2061.524249   -20.870200    0.002785  0.000780
 169     -2061.524510   -21.034329    0.002675  0.000753
 170     -2061.524763   -21.192907    0.002570  0.000726
 171     -2061.525008   -21.346384    0.002464  0.000699
 172     -2061.525244   -21.494800    0.002363  0.000675
 173     -2061.525473   -21.638277    0.002262  0.000650
 174     -2061.525694   -21.777279    0.002164  0.000628
 175     -2061.525908   -21.911291    0.002068  0.000603
 176     -2061.526115   -22.041561    0.001972  0.000586
 177     -2061.526315   -22.166528    0.001883  0.000561
 178     -2061.526509   -22.288538    0.001785  0.000544
 179     -2061.526696   -22.405870    0.001709  0.000524
 180     -2061.526878   -22.519836    0.001604  0.000509
 181     -2061.527053   -22.629547    0.001547  0.000489

Timings for individual modules:

Sum of individual times         ...    26835.701 sec (= 447.262 min)
GTO integral calculation        ...      724.102 sec (=  12.068 min)   2.7 %
SCF iterations                  ...    22327.435 sec (= 372.124 min)  83.2 %
SCF Gradient evaluation         ...     3784.164 sec (=  63.069 min)  14.1 %
================================================================================

cite the ECPs for Pd [Def2-ECP] as follows:
Ce-Yb(ecp-28): M. Dolg, H. Stoll, H.Preuss, J. Chem. Phys., 1989, 90, 1730-1734.
Y-Cd(ecp-28), Hf-Hg(ecp-46): D. Andrae,U. Haeussermann, M. Dolg, H. Stoll, H. Preuss, Theor. Chim. Acta, 1990, 77, 123-141.
In-Sb(ecp-28), Tl-Bi(ecp-46): B. Metz, H. Stoll, M. Dolg, J. Chem. Phys., 2000, 113, 2563-2569.
Te-Xe(ecp-28), Po-Rn(ecp-46): K. A. Peterson, D. Figgen, E. Goll, H. Stoll, M. Dolg, J. Chem. Phys., 2003, 119, 11113-11123.
Rb(ecp-28), Cs(ecp-46): T. Leininger, A. Nicklass, W. Kuechle, H. Stoll, M. Dolg, A. Bergner, Chem. Phys. Lett., 1996, 255, 274-280.
Sr(ecp-28), Ba(ecp-46): M. Kaupp, P. V. Schleyer, H. Stoll and H. Preuss, J. Chem. Phys., 1991, 94, 1360-1366.
La(ecp-46): M. Dolg, H. Stoll, A. Savin, H. Preuss, Theor. Chim. Acta, 1989, 75, 173-194.
Lu(ecp-28): X. Cao, M. Dolg, J. Chem. Phys., 2001, 115, 7348-7355.

ECP parameters for Pd [Def2-ECP] have been obtained from:
TURBOMOLE (7.0.2)

----- Orbital basis set information -----
Your calculation utilizes the basis: def2-SVP
   F. Weigend and R. Ahlrichs, Phys. Chem. Chem. Phys. 7, 3297 (2005).

                             ****ORCA TERMINATED NORMALLY****
TOTAL RUN TIME: 0 days 8 hours 0 minutes 6 seconds 636 msec
