
                                 *****************
                                 * O   R   C   A *
                                 *****************

                                            #,                                       
                                            ###                                      
                                            ####                                     
                                            #####                                    
                                            ######                                   
                                           ########,                                 
                                     ,,################,,,,,                         
                               ,,#################################,,                 
                          ,,##########################################,,             
                       ,#########################################, ''#####,          
                    ,#############################################,,   '####,        
                  ,##################################################,,,,####,       
                ,###########''''           ''''###############################       
              ,#####''   ,,,,##########,,,,          '''####'''          '####       
            ,##' ,,,,###########################,,,                        '##       
           ' ,,###''''                  '''############,,,                           
         ,,##''                                '''############,,,,        ,,,,,,###''
      ,#''                                            '''#######################'''  
     '                                                          ''''####''''         
             ,#######,   #######,   ,#######,      ##                                
            ,#'     '#,  ##    ##  ,#'     '#,    #''#        ######   ,####,        
            ##       ##  ##   ,#'  ##            #'  '#       #        #'  '#        
            ##       ##  #######   ##           ,######,      #####,   #    #        
            '#,     ,#'  ##    ##  '#,     ,#' ,#      #,         ##   #,  ,#        
             '#######'   ##     ##  '#######'  #'      '#     #####' # '####'        



                  #######################################################
                  #                        -***-                        #
                  #          Department of theory and spectroscopy      #
                  #    Directorship and core code : Frank Neese         #
                  #        Max Planck Institute fuer Kohlenforschung    #
                  #                Kaiser Wilhelm Platz 1               #
                  #                 D-45470 Muelheim/Ruhr               #
                  #                      Germany                        #
                  #                                                     #
                  #                  All rights reserved                #
                  #                        -***-                        #
                  #######################################################


                         Program Version 5.0.4 -  RELEASE  -


 With contributions from (in alphabetic order):
   Daniel Aravena         : Magnetic Suceptibility
   Michael Atanasov       : Ab Initio Ligand Field Theory (pilot matlab implementation)
   Alexander A. Auer      : GIAO ZORA, VPT2 properties, NMR spectrum
   Ute Becker             : Parallelization
   Giovanni Bistoni       : ED, misc. LED, open-shell LED, HFLD
   Martin Brehm           : Molecular dynamics
   Dmytro Bykov           : SCF Hessian
   Vijay G. Chilkuri      : MRCI spin determinant printing, contributions to CSF-ICE
   Dipayan Datta          : RHF DLPNO-CCSD density
   Achintya Kumar Dutta   : EOM-CC, STEOM-CC
   Dmitry Ganyushin       : Spin-Orbit,Spin-Spin,Magnetic field MRCI
   Miquel Garcia          : C-PCM and meta-GGA Hessian, CC/C-PCM, Gaussian charge scheme
   Yang Guo               : DLPNO-NEVPT2, F12-NEVPT2, CIM, IAO-localization
   Andreas Hansen         : Spin unrestricted coupled pair/coupled cluster methods
   Benjamin Helmich-Paris : MC-RPA, TRAH-SCF, COSX integrals
   Lee Huntington         : MR-EOM, pCC
   Robert Izsak           : Overlap fitted RIJCOSX, COSX-SCS-MP3, EOM
   Marcus Kettner         : VPT2
   Christian Kollmar      : KDIIS, OOCD, Brueckner-CCSD(T), CCSD density, CASPT2, CASPT2-K
   Simone Kossmann        : Meta GGA functionals, TD-DFT gradient, OOMP2, MP2 Hessian
   Martin Krupicka        : Initial AUTO-CI
   Lucas Lang             : DCDCAS
   Marvin Lechner         : AUTO-CI (C++ implementation), FIC-MRCC
   Dagmar Lenk            : GEPOL surface, SMD
   Dimitrios Liakos       : Extrapolation schemes; Compound Job, initial MDCI parallelization
   Dimitrios Manganas     : Further ROCIS development; embedding schemes
   Dimitrios Pantazis     : SARC Basis sets
   Anastasios Papadopoulos: AUTO-CI, single reference methods and gradients
   Taras Petrenko         : DFT Hessian,TD-DFT gradient, ASA, ECA, R-Raman, ABS, FL, XAS/XES, NRVS
   Peter Pinski           : DLPNO-MP2, DLPNO-MP2 Gradient
   Christoph Reimann      : Effective Core Potentials
   Marius Retegan         : Local ZFS, SOC
   Christoph Riplinger    : Optimizer, TS searches, QM/MM, DLPNO-CCSD(T), (RO)-DLPNO pert. Triples
   Tobias Risthaus        : Range-separated hybrids, TD-DFT gradient, RPA, STAB
   Michael Roemelt        : Original ROCIS implementation
   Masaaki Saitow         : Open-shell DLPNO-CCSD energy and density
   Barbara Sandhoefer     : DKH picture change effects
   Avijit Sen             : IP-ROCIS
   Kantharuban Sivalingam : CASSCF convergence, NEVPT2, FIC-MRCI
   Bernardo de Souza      : ESD, SOC TD-DFT
   Georgi Stoychev        : AutoAux, RI-MP2 NMR, DLPNO-MP2 response
   Willem Van den Heuvel  : Paramagnetic NMR
   Boris Wezisla          : Elementary symmetry handling
   Frank Wennmohs         : Technical directorship


 We gratefully acknowledge several colleagues who have allowed us to
 interface, adapt or use parts of their codes:
   Stefan Grimme, W. Hujo, H. Kruse, P. Pracht,  : VdW corrections, initial TS optimization,
                  C. Bannwarth, S. Ehlert          DFT functionals, gCP, sTDA/sTD-DF
   Ed Valeev, F. Pavosevic, A. Kumar             : LibInt (2-el integral package), F12 methods
   Garnet Chan, S. Sharma, J. Yang, R. Olivares  : DMRG
   Ulf Ekstrom                                   : XCFun DFT Library
   Mihaly Kallay                                 : mrcc  (arbitrary order and MRCC methods)
   Jiri Pittner, Ondrej Demel                    : Mk-CCSD
   Frank Weinhold                                : gennbo (NPA and NBO analysis)
   Christopher J. Cramer and Donald G. Truhlar   : smd solvation model
   Lars Goerigk                                  : TD-DFT with DH, B97 family of functionals
   V. Asgeirsson, H. Jonsson                     : NEB implementation
   FAccTs GmbH                                   : IRC, NEB, NEB-TS, DLPNO-Multilevel, CI-OPT
                                                   MM, QMMM, 2- and 3-layer-ONIOM, Crystal-QMMM,
                                                   LR-CPCM, SF, NACMEs, symmetry and pop. for TD-DFT,
                                                   nearIR, NL-DFT gradient (VV10), updates on ESD,
                                                   ML-optimized integration grids
   S Lehtola, MJT Oliveira, MAL Marques          : LibXC Library
   Liviu Ungur et al                             : ANISO software


 Your calculation uses the libint2 library for the computation of 2-el integrals
 For citations please refer to: http://libint.valeyev.net

 Your ORCA version has been built with support for libXC version: 5.1.0
 For citations please refer to: https://tddft.org/programs/libxc/

 This ORCA versions uses:
   CBLAS   interface :  Fast vector & matrix operations
   LAPACKE interface :  Fast linear algebra routines
   SCALAPACK package :  Parallel linear algebra routines
   Shared memory     :  Shared parallel matrices
   BLAS/LAPACK       :  OpenBLAS 0.3.15  USE64BITINT DYNAMIC_ARCH NO_AFFINITY SkylakeX SINGLE_THREADED
        Core in use  :  SkylakeX
   Copyright (c) 2011-2014, The OpenBLAS Project




***************************************
The coordinates will be read from file: reaction-0-prod-xtb.xyz
***************************************


Your calculation utilizes the geometrical counterpoise correction gCP
Please cite in your paper:
H.Kruse, S. Grimme J.Chem.Phys., 136, (2012), 154101 
   

Your calculation utilizes the atom-pairwise dispersion correction
with the Becke-Johnson damping scheme (D3BJ)
Cite in your paper:
S.Grimme, S.Ehrlich, L.Goerigk, J Comput Chem, (2011), 32, 1456–1465 
S.Grimme, J.Antony, S.Ehrlich and H.Krieg, J.Chem.Phys., 132, (2010), 154104 
   

Your calculation employs the composite approach PBEh-3c.
Please cite in your paper:
S. Grimme, J. G. Brandenburg, C. Bannwarth, A. Hansen J.Chem.Phys., 143, (2015), 054107 
   

================================================================================

cite the ECPs for Pd [Def2-ECP] as follows:
Ce-Yb(ecp-28): M. Dolg, H. Stoll, H.Preuss, J. Chem. Phys., 1989, 90, 1730-1734.
Y-Cd(ecp-28), Hf-Hg(ecp-46): D. Andrae,U. Haeussermann, M. Dolg, H. Stoll, H. Preuss, Theor. Chim. Acta, 1990, 77, 123-141.
In-Sb(ecp-28), Tl-Bi(ecp-46): B. Metz, H. Stoll, M. Dolg, J. Chem. Phys., 2000, 113, 2563-2569.
Te-Xe(ecp-28), Po-Rn(ecp-46): K. A. Peterson, D. Figgen, E. Goll, H. Stoll, M. Dolg, J. Chem. Phys., 2003, 119, 11113-11123.
Rb(ecp-28), Cs(ecp-46): T. Leininger, A. Nicklass, W. Kuechle, H. Stoll, M. Dolg, A. Bergner, Chem. Phys. Lett., 1996, 255, 274-280.
Sr(ecp-28), Ba(ecp-46): M. Kaupp, P. V. Schleyer, H. Stoll and H. Preuss, J. Chem. Phys., 1991, 94, 1360-1366.
La(ecp-46): M. Dolg, H. Stoll, A. Savin, H. Preuss, Theor. Chim. Acta, 1989, 75, 173-194.
Lu(ecp-28): X. Cao, M. Dolg, J. Chem. Phys., 2001, 115, 7348-7355.

ECP parameters for Pd [Def2-ECP] have been obtained from:
TURBOMOLE (7.0.2)

----- Orbital basis set information -----
Your calculation utilizes the basis: def2-mSVP

----- AuxJ basis set information -----
Your calculation utilizes the auxiliary basis: def2/J
   F. Weigend, Phys. Chem. Chem. Phys. 8, 1057 (2006).

================================================================================
                                        WARNINGS
                       Please study these warnings very carefully!
================================================================================


WARNING: Geometry Optimization
  ===> : Switching off AutoStart
         For restart on a previous wavefunction, please use MOREAD

INFO   : the flag for use of the SHARK integral package has been found!

================================================================================
                                       INPUT FILE
================================================================================
NAME = reaction-0-prod-pbeh3c-orca_opt.inp
|  1> ! PBEh-3c OPT pal4
|  2> 
|  3> %geom
|  4>  maxiter 600
|  5> end 
|  6> 
|  7> *xyzfile 0 1 reaction-0-prod-xtb.xyz
|  8> 
|  9>                          ****END OF INPUT****
================================================================================

                       *****************************
                       * Geometry Optimization Run *
                       *****************************

Geometry optimization settings:
Update method            Update   .... BFGS
Choice of coordinates    CoordSys .... Z-matrix Internals
Initial Hessian          InHess   .... Almoef's Model

Convergence Tolerances:
Energy Change            TolE     ....  5.0000e-06 Eh
Max. Gradient            TolMAXG  ....  3.0000e-04 Eh/bohr
RMS Gradient             TolRMSG  ....  1.0000e-04 Eh/bohr
Max. Displacement        TolMAXD  ....  4.0000e-03 bohr
RMS Displacement         TolRMSD  ....  2.0000e-03 bohr
Strict Convergence                ....  False
------------------------------------------------------------------------------
                        ORCA OPTIMIZATION COORDINATE SETUP
------------------------------------------------------------------------------

The optimization will be done in new redundant internal coordinates
Making redundant internal coordinates   ...  (new redundants) done
Evaluating the initial hessian          ...  (Almloef) done
Evaluating the coordinates              ...  done
Calculating the B-matrix                .... done
Calculating the G-matrix                .... done
Diagonalizing the G-matrix              .... done
Small eigenvalue found = 2.730e-02
The first mode is                       ....  130
The number of degrees of freedom        ....   57

    -----------------------------------------------------------------
                    Redundant Internal Coordinates


    -----------------------------------------------------------------
         Definition                    Initial Value    Approx d2E/dq
    -----------------------------------------------------------------
      1. B(C   1,C   0)                  1.3872         0.631337   
      2. B(C   2,C   1)                  1.3849         0.636619   
      3. B(C   3,C   2)                  1.3845         0.637533   
      4. B(C   4,C   0)                  1.3900         0.624840   
      5. B(C   5,C   3)                  1.3875         0.630662   
      6. B(C   5,C   4)                  1.3903         0.624104   
      7. B(H   6,C   0)                  1.0886         0.361959   
      8. B(H   7,C   1)                  1.0807         0.372592   
      9. B(H   8,C   2)                  1.0804         0.372988   
     10. B(H   9,C   5)                  1.0901         0.360015   
     11. B(H  10,C   3)                  1.0810         0.372198   
     12. B(Pd 11,C   4)                  1.9787         0.727238   
     13. B(O  12,Pd 11)                  2.2487         0.241552   
     14. B(O  13,Pd 11)                  2.0238         0.551835   
     15. B(O  14,Pd 11)                  2.0131         0.573928   
     16. B(C  15,O  14)                  1.2087         1.089229   
     17. B(C  15,Pd 11)                  2.6759         0.056138   
     18. B(O  16,C  15)                  1.3378         0.677963   
     19. B(O  16,Pd 11)                  2.6665         0.052050   
     20. B(H  17,O  16)                  0.9681         0.504694   
     21. B(C  18,O  13)                  1.2546         0.920278   
     22. B(C  18,O  12)                  1.2418         0.964533   
     23. B(C  18,Pd 11)                  2.4251         0.141068   
     24. B(H  19,C  18)                  1.1093         0.335443   
     25. B(H  20,C  15)                  1.0965         0.351582   
     26. A(C   4,C   0,H   6)          119.8022         0.353682   
     27. A(C   1,C   0,C   4)          120.0964         0.436094   
     28. A(C   1,C   0,H   6)          120.1011         0.354302   
     29. A(C   2,C   1,H   7)          119.9184         0.356551   
     30. A(C   0,C   1,H   7)          119.9923         0.356047   
     31. A(C   0,C   1,C   2)          120.0892         0.437565   
     32. A(C   1,C   2,C   3)          120.0535         0.438336   
     33. A(C   1,C   2,H   8)          119.9905         0.356615   
     34. A(C   3,C   2,H   8)          119.9553         0.356702   
     35. A(C   2,C   3,C   5)          120.0103         0.437594   
     36. A(C   2,C   3,H  10)          119.9590         0.356574   
     37. A(C   5,C   3,H  10)          120.0307         0.355918   
     38. A(C   0,C   4,C   5)          119.5848         0.435190   
     39. A(C   5,C   4,Pd 11)          119.5236         0.502796   
     40. A(C   0,C   4,Pd 11)          120.8784         0.502907   
     41. A(C   3,C   5,C   4)          120.1631         0.435918   
     42. A(C   4,C   5,H   9)          119.9074         0.353289   
     43. A(C   3,C   5,H   9)          119.9285         0.353915   
     44. A(C   4,Pd 11,O  16)          101.4347         0.359783   
     45. A(O  14,Pd 11,C  15)           25.1534         0.350084   
     46. A(C  15,Pd 11,C  18)          125.2453         0.280154   
     47. A(O  12,Pd 11,C  15)           98.0613         0.303641   
     48. A(C   4,Pd 11,C  15)           99.3855         0.366071   
     49. A(O  13,Pd 11,O  14)          168.8250         0.524405   
     50. A(O  13,Pd 11,C  18)           31.1236         0.407784   
     51. A(O  13,Pd 11,C  15)          149.7259         0.347775   
     52. A(O  12,Pd 11,C  18)           30.5186         0.353416   
     53. A(O  12,Pd 11,O  14)          107.1927         0.450147   
     54. A(O  16,Pd 11,C  18)          107.6270         0.275816   
     55. A(O  14,Pd 11,C  18)          137.7074         0.410629   
     56. A(C   4,Pd 11,O  14)           92.3245         0.555190   
     57. A(O  12,Pd 11,O  13)           61.6344         0.446953   
     58. A(C   4,Pd 11,C  18)          129.9495         0.430323   
     59. A(C   4,Pd 11,O  13)           98.8504         0.551067   
     60. A(C   4,Pd 11,O  12)          160.4596         0.472262   
     61. A(C  15,Pd 11,O  16)           29.0023         0.240649   
     62. A(O  14,Pd 11,O  16)           54.0097         0.344159   
     63. A(O  13,Pd 11,O  16)          122.8822         0.341902   
     64. A(O  12,Pd 11,O  16)           89.6710         0.298770   
     65. A(Pd 11,O  12,C  18)           82.6178         0.439841   
     66. A(Pd 11,O  13,C  18)           92.3853         0.507507   
     67. A(Pd 11,O  14,C  15)          109.7810         0.527662   
     68. A(Pd 11,C  15,O  14)           45.0656         0.349710   
     69. A(O  16,C  15,H  20)          117.2345         0.354642   
     70. A(O  14,C  15,H  20)          123.0437         0.384736   
     71. A(Pd 11,C  15,H  20)          166.0751         0.265017   
     72. A(O  14,C  15,O  16)          119.7210         0.482461   
     73. A(Pd 11,C  15,O  16)           75.1081         0.323181   
     74. A(C  15,O  16,H  17)          115.3300         0.373933   
     75. A(Pd 11,O  16,H  17)          166.4648         0.273514   
     76. A(Pd 11,O  16,C  15)           75.8896         0.317866   
     77. A(O  13,C  18,H  19)          117.4993         0.370655   
     78. A(O  12,C  18,H  19)          119.1700         0.373665   
     79. A(Pd 11,C  18,H  19)          173.7474         0.303541   
     80. A(O  12,C  18,O  13)          123.3307         0.499193   
     81. A(Pd 11,C  18,O  13)           56.4912         0.398147   
     82. A(Pd 11,C  18,O  12)           66.8636         0.401451   
     83. D(H   7,C   1,C   0,C   4)    179.8891         0.027644   
     84. D(C   2,C   1,C   0,C   4)     -0.1777         0.027644   
     85. D(H   7,C   1,C   0,H   6)      0.0838         0.027644   
     86. D(C   2,C   1,C   0,H   6)   -179.9830         0.027644   
     87. D(C   3,C   2,C   1,C   0)     -0.2670         0.028139   
     88. D(H   8,C   2,C   1,H   7)     -0.0392         0.028139   
     89. D(H   8,C   2,C   1,C   0)   -179.9724         0.028139   
     90. D(C   3,C   2,C   1,H   7)    179.6663         0.028139   
     91. D(H  10,C   3,C   2,H   8)      0.1708         0.028225   
     92. D(H  10,C   3,C   2,C   1)   -179.5347         0.028225   
     93. D(C   5,C   3,C   2,C   1)      0.3556         0.028225   
     94. D(C   5,C   3,C   2,H   8)   -179.9388         0.028225   
     95. D(Pd 11,C   4,C   0,C   1)    179.2030         0.027042   
     96. D(C   5,C   4,C   0,C   1)      0.5299         0.027042   
     97. D(C   5,C   4,C   0,H   6)   -179.6643         0.027042   
     98. D(Pd 11,C   4,C   0,H   6)     -0.9912         0.027042   
     99. D(C   3,C   5,C   4,C   0)     -0.4414         0.026974   
    100. D(H   9,C   5,C   4,C   0)    179.1920         0.026974   
    101. D(C   3,C   5,C   4,Pd 11)   -179.1326         0.026974   
    102. D(C   4,C   5,C   3,H  10)    179.8902         0.027581   
    103. D(H   9,C   5,C   3,C   2)   -179.6334         0.027581   
    104. D(H   9,C   5,C   4,Pd 11)      0.5008         0.026974   
    105. D(C   4,C   5,C   3,C   2)     -0.0001         0.027581   
    106. D(H   9,C   5,C   3,H  10)      0.2569         0.027581   
    107. D(O  13,Pd 11,C   4,C   5)     82.2987         0.004137   
    108. D(O  14,Pd 11,C   4,C   0)     83.6073         0.004137   
    109. D(O  13,Pd 11,C   4,C   0)    -96.3752         0.004137   
    110. D(O  14,Pd 11,C   4,C   5)    -97.7188         0.004137   
    111. D(O  12,Pd 11,C   4,C   5)     79.5252         0.004137   
    112. D(C  15,Pd 11,C   4,C   0)    107.8937         0.004137   
    113. D(O  12,Pd 11,C   4,C   0)    -99.1487         0.004137   
    114. D(C  18,Pd 11,C   4,C   5)     80.9137         0.004137   
    115. D(C  18,Pd 11,C   4,C   0)    -97.7602         0.004137   
    116. D(O  16,Pd 11,C   4,C   5)    -44.0059         0.004137   
    117. D(O  16,Pd 11,C   4,C   0)    137.3203         0.004137   
    118. D(C  15,Pd 11,C   4,C   5)    -73.4324         0.004137   
    119. D(C  18,O  12,Pd 11,C  15)    155.1574         0.001813   
    120. D(C  18,O  12,Pd 11,O  14)    179.2137         0.001813   
    121. D(C  18,O  12,Pd 11,O  13)     -1.0183         0.001813   
    122. D(C  18,O  12,Pd 11,C   4)      2.0963         0.001813   
    123. D(C  18,O  12,Pd 11,O  16)    127.3054         0.001813   
    124. D(C  18,O  13,Pd 11,O  16)    -68.0943         0.003101   
    125. D(C  18,O  13,Pd 11,C  15)    -51.4961         0.003101   
    126. D(C  18,O  13,Pd 11,O  14)      2.1444         0.003101   
    127. D(C  18,O  13,Pd 11,O  12)      1.0005         0.003101   
    128. D(C  18,O  13,Pd 11,C   4)   -177.9457         0.003101   
    129. D(C  15,O  14,Pd 11,O  13)    -72.7792         0.003232   
    130. D(C  15,O  14,Pd 11,O  12)    -71.7255         0.003232   
    131. D(C  15,O  14,Pd 11,C   4)    107.3099         0.003232   
    132. D(C  15,O  14,Pd 11,O  16)      4.8509         0.003232   
    133. D(C  15,O  14,Pd 11,C  18)    -71.1322         0.003232   
    134. D(H  20,C  15,Pd 11,C   4)   -109.7899         0.001519   
    135. D(O  16,C  15,Pd 11,C  18)    -59.3443         0.001519   
    136. D(O  16,C  15,Pd 11,O  14)    171.8874         0.001519   
    137. D(O  16,C  15,Pd 11,O  13)    -29.6555         0.001519   
    138. D(O  16,C  15,Pd 11,O  12)    -74.4877         0.001519   
    139. D(O  16,C  15,Pd 11,C   4)     96.6776         0.001519   
    140. D(O  14,C  15,Pd 11,C  18)    128.7683         0.001519   
    141. D(O  14,C  15,Pd 11,O  16)   -171.8874         0.001519   
    142. D(O  14,C  15,Pd 11,O  13)    158.4572         0.001519   
    143. D(O  14,C  15,Pd 11,O  12)    113.6250         0.001519   
    144. D(H  20,C  15,Pd 11,O  12)     79.0449         0.001519   
    145. D(O  14,C  15,Pd 11,C   4)    -75.2098         0.001519   
    146. D(H  20,C  15,O  14,Pd 11)    170.6226         0.110648   
    147. D(O  16,C  15,O  14,Pd 11)     -9.0350         0.110648   
    148. D(H  20,C  15,Pd 11,C  18)     94.1882         0.001519   
    149. D(H  20,C  15,Pd 11,O  16)    153.5325         0.001519   
    150. D(H  20,C  15,Pd 11,O  14)    -34.5801         0.001519   
    151. D(H  20,C  15,Pd 11,O  13)    123.8770         0.001519   
    152. D(H  17,O  16,C  15,H  20)     -1.1331         0.041133   
    153. D(H  17,O  16,C  15,O  14)    178.5441         0.041133   
    154. D(H  17,O  16,C  15,Pd 11)    171.9386         0.041133   
    155. D(Pd 11,O  16,C  15,H  20)   -173.0717         0.041133   
    156. D(Pd 11,O  16,C  15,O  14)      6.6056         0.041133   
    157. D(H  17,O  16,Pd 11,C  18)    -14.6992         0.001518   
    158. D(H  17,O  16,Pd 11,C  15)   -147.2087         0.001518   
    159. D(H  17,O  16,Pd 11,O  14)   -151.4601         0.001518   
    160. D(H  17,O  16,Pd 11,O  13)     15.5122         0.001518   
    161. D(H  17,O  16,Pd 11,O  12)    -39.7756         0.001518   
    162. D(H  17,O  16,Pd 11,C   4)    124.0349         0.001518   
    163. D(C  15,O  16,Pd 11,C  18)    132.5095         0.001518   
    164. D(C  15,O  16,Pd 11,O  14)     -4.2514         0.001518   
    165. D(C  15,O  16,Pd 11,O  13)    162.7209         0.001518   
    166. D(C  15,O  16,Pd 11,O  12)    107.4331         0.001518   
    167. D(C  15,O  16,Pd 11,C   4)    -88.7564         0.001518   
    168. D(H  19,C  18,O  13,Pd 11)    177.9944         0.074948   
    169. D(O  12,C  18,O  13,Pd 11)     -1.9083         0.074948   
    170. D(O  13,C  18,O  12,Pd 11)      1.7302         0.083475   
    171. D(H  19,C  18,Pd 11,O  16)    108.6006         0.001611   
    172. D(H  19,C  18,Pd 11,C  15)    134.5536         0.001611   
    173. D(H  19,C  18,Pd 11,O  14)    164.0574         0.001611   
    174. D(H  19,C  18,Pd 11,O  13)    -16.5601         0.001611   
    175. D(H  19,C  18,Pd 11,O  12)    165.1737         0.001611   
    176. D(H  19,C  18,Pd 11,C   4)    -13.9118         0.001611   
    177. D(O  13,C  18,Pd 11,O  16)    125.1607         0.001611   
    178. D(O  13,C  18,Pd 11,C  15)    151.1137         0.001611   
    179. D(O  13,C  18,Pd 11,O  14)   -179.3825         0.001611   
    180. D(O  13,C  18,Pd 11,O  12)   -178.2662         0.001611   
    181. D(O  13,C  18,Pd 11,C   4)      2.6482         0.001611   
    182. D(O  12,C  18,Pd 11,O  16)    -56.5731         0.001611   
    183. D(O  12,C  18,Pd 11,C  15)    -30.6201         0.001611   
    184. D(H  19,C  18,O  12,Pd 11)   -178.1710         0.083475   
    185. D(O  12,C  18,Pd 11,O  14)     -1.1163         0.001611   
    186. D(O  12,C  18,Pd 11,O  13)    178.2662         0.001611   
    187. D(O  12,C  18,Pd 11,C   4)   -179.0855         0.001611   
    -----------------------------------------------------------------

Number of atoms                         .... 21
Number of degrees of freedom            .... 187

         *************************************************************
         *                GEOMETRY OPTIMIZATION CYCLE   1            *
         *************************************************************
---------------------------------
CARTESIAN COORDINATES (ANGSTROEM)
---------------------------------
  C     -1.140930   -0.356260   -1.579920
  C     -2.127390   -1.322880   -1.709420
  C     -2.296250   -2.279220   -0.722080
  C     -1.476920   -2.275760    0.393960
  C     -0.321620   -0.342540   -0.457160
  C     -0.490450   -1.309300    0.527630
  H     -1.008210    0.395730   -2.355770
  H     -2.764640   -1.330890   -2.582230
  H     -3.064790   -3.031630   -0.824790
  H      0.157800   -1.311420    1.403990
  H     -1.605150   -3.027510    1.160120
  Pd     1.107880    1.011220   -0.259670
  O      3.146650    1.959570   -0.285490
  O      2.666800   -0.079080   -0.950170
  O     -0.175050    2.378280    0.473730
  C      0.014930    2.523300    1.658570
  O      0.840500    1.692150    2.304520
  H      0.963320    1.879470    3.246360
  C      3.480860    0.850560   -0.733230
  H      4.550280    0.657290   -0.955830
  H     -0.457550    3.318900    2.246900

----------------------------
CARTESIAN COORDINATES (A.U.)
----------------------------
  NO LB      ZA    FRAG     MASS         X           Y           Z
   0 C     6.0000    0    12.011   -2.156045   -0.673234   -2.985616
   1 C     6.0000    0    12.011   -4.020184   -2.499881   -3.230336
   2 C     6.0000    0    12.011   -4.339284   -4.307102   -1.364533
   3 C     6.0000    0    12.011   -2.790974   -4.300563    0.744477
   4 C     6.0000    0    12.011   -0.607774   -0.647307   -0.863907
   5 C     6.0000    0    12.011   -0.926816   -2.474218    0.997076
   6 H     1.0000    0     1.008   -1.905241    0.747821   -4.451760
   7 H     1.0000    0     1.008   -5.224412   -2.515018   -4.879708
   8 H     1.0000    0     1.008   -5.791614   -5.728950   -1.558627
   9 H     1.0000    0     1.008    0.298199   -2.478225    2.653157
  10 H     1.0000    0     1.008   -3.033294   -5.721165    2.192309
  11 Pd   18.0000*   0   106.400    2.093590    1.910929   -0.490705
  12 O     8.0000    0    15.999    5.946307    3.703051   -0.539498
  13 O     8.0000    0    15.999    5.039522   -0.149440   -1.795561
  14 O     8.0000    0    15.999   -0.330797    4.494298    0.895220
  15 C     6.0000    0    12.011    0.028214    4.768346    3.134243
  16 O     8.0000    0    15.999    1.588315    3.197700    4.354912
  17 H     1.0000    0     1.008    1.820411    3.551684    6.134731
  18 C     6.0000    0    12.011    6.577872    1.607325   -1.385604
  19 H     1.0000    0     1.008    8.598783    1.242098   -1.806257
  20 H     1.0000    0     1.008   -0.864644    6.271812    4.246026
* core charge reduced due to ECP

--------------------------------
INTERNAL COORDINATES (ANGSTROEM)
--------------------------------
 C      0   0   0     0.000000000000     0.00000000     0.00000000
 C      1   0   0     1.387165385237     0.00000000     0.00000000
 C      2   1   0     1.384897169757   120.08922830     0.00000000
 C      3   2   1     1.384506736026   120.05350387   359.73303970
 C      1   2   3     1.389980982640   120.09643939   359.82227492
 C      4   3   2     1.387456543968   120.01026461     0.35561879
 H      1   2   3     1.088598539867   120.10107670   180.01702614
 H      2   1   3     1.080716900349   119.99234865   180.06679065
 H      3   2   1     1.080427639317   119.99050121   180.02756279
 H      6   4   3     1.090063946060   119.92851032   180.36663316
 H      4   3   2     1.081005153087   119.95898677   180.46525288
 Pd     5   1   2     1.978670939722   120.87841669   179.20297425
 O     12   5   1     2.248692399551   160.45956361   260.85133140
 O     12   5   1     2.023802338767    98.85042246   263.62478251
 O     12   5   1     2.013116486570    92.32454624    83.60730452
 C     15  12   5     1.208705516824   109.78104435   107.30988545
 O     16  15  12     1.337769617647   119.72097996   350.96497226
 H     17  16  15     0.968109560122   115.32998247   178.54412084
 C     13  12   5     1.241801357625    82.61781277     2.09633797
 H     19  13  12     1.109307526928   119.16999334   181.82904761
 H     16  15  12     1.096516711820   123.04367698   170.62262230

---------------------------
INTERNAL COORDINATES (A.U.)
---------------------------
 C      0   0   0     0.000000000000     0.00000000     0.00000000
 C      1   0   0     2.621362680553     0.00000000     0.00000000
 C      2   1   0     2.617076374483   120.08922830     0.00000000
 C      3   2   1     2.616338561657   120.05350387   359.73303970
 C      1   2   3     2.626683388548   120.09643939   359.82227492
 C      4   3   2     2.621912890817   120.01026461     0.35561879
 H      1   2   3     2.057153110135   120.10107670   180.01702614
 H      2   1   3     2.042258969960   119.99234865   180.06679065
 H      3   2   1     2.041712345828   119.99050121   180.02756279
 H      6   4   3     2.059922326515   119.92851032   180.36663316
 H      4   3   2     2.042803688691   119.95898677   180.46525288
 Pd     5   1   2     3.739146185223   120.87841669   179.20297425
 O     12   5   1     4.249412794582   160.45956361   260.85133140
 O     12   5   1     3.824432169460    98.85042246   263.62478251
 O     12   5   1     3.804238835299    92.32454624    83.60730452
 C     15  12   5     2.284122403357   109.78104435   107.30988545
 O     16  15  12     2.528018207634   119.72097996   350.96497226
 H     17  16  15     1.829461936262   115.32998247   178.54412084
 C     13  12   5     2.346664478643    82.61781277     2.09633797
 H     19  13  12     2.096287424192   119.16999334   181.82904761
 H     16  15  12     2.072116286607   123.04367698   170.62262230

---------------------
BASIS SET INFORMATION
---------------------
There are 4 groups of distinct atoms

 Group   1 Type C   : 8s4p1d contracted to 4s2p1d pattern {5111/31/1}
 Group   2 Type H   : 4s contracted to 2s pattern {31}
 Group   3 Type Pd  : 7s6p5d1f contracted to 5s3p2d1f pattern {31111/411/41/1}
 Group   4 Type O   : 8s4p1d contracted to 4s2p1d pattern {5111/31/1}

Atom   0C    basis set group =>   1
Atom   1C    basis set group =>   1
Atom   2C    basis set group =>   1
Atom   3C    basis set group =>   1
Atom   4C    basis set group =>   1
Atom   5C    basis set group =>   1
Atom   6H    basis set group =>   2
Atom   7H    basis set group =>   2
Atom   8H    basis set group =>   2
Atom   9H    basis set group =>   2
Atom  10H    basis set group =>   2
Atom  11Pd   basis set group =>   3
Atom  12O    basis set group =>   4
Atom  13O    basis set group =>   4
Atom  14O    basis set group =>   4
Atom  15C    basis set group =>   1
Atom  16O    basis set group =>   4
Atom  17H    basis set group =>   2
Atom  18C    basis set group =>   1
Atom  19H    basis set group =>   2
Atom  20H    basis set group =>   2
---------------------------------
AUXILIARY/J BASIS SET INFORMATION
---------------------------------
There are 4 groups of distinct atoms

 Group   1 Type C   : 12s5p4d2f1g contracted to 6s4p3d1f1g pattern {711111/2111/211/2/1}
 Group   2 Type H   : 5s2p1d contracted to 3s1p1d pattern {311/2/1}
 Group   3 Type Pd  : 11s5p5d3f3g contracted to 8s5p5d2f3g pattern {41111111/11111/11111/21/111}
 Group   4 Type O   : 12s5p4d2f1g contracted to 6s4p3d1f1g pattern {711111/2111/211/2/1}

Atom   0C    basis set group =>   1
Atom   1C    basis set group =>   1
Atom   2C    basis set group =>   1
Atom   3C    basis set group =>   1
Atom   4C    basis set group =>   1
Atom   5C    basis set group =>   1
Atom   6H    basis set group =>   2
Atom   7H    basis set group =>   2
Atom   8H    basis set group =>   2
Atom   9H    basis set group =>   2
Atom  10H    basis set group =>   2
Atom  11Pd   basis set group =>   3
Atom  12O    basis set group =>   4
Atom  13O    basis set group =>   4
Atom  14O    basis set group =>   4
Atom  15C    basis set group =>   1
Atom  16O    basis set group =>   4
Atom  17H    basis set group =>   2
Atom  18C    basis set group =>   1
Atom  19H    basis set group =>   2
Atom  20H    basis set group =>   2
-------------------------
ECP PARAMETER INFORMATION
-------------------------

 Group 1, Type Pd ECP Def2-ECP (replacing 28 core electrons, lmax=3)

Atom  11Pd   ECP group =>   1



           ************************************************************
           *        Program running with 4 parallel MPI-processes     *
           *              working on a common directory               *
           ************************************************************
------------------------------------------------------------------------------
                           ORCA GTO INTEGRAL CALCULATION
                           -- RI-GTO INTEGRALS CHOSEN --
------------------------------------------------------------------------------
------------------------------------------------------------------------------
                   ___                                                        
                  /   \      - P O W E R E D   B Y -                         
                 /     \                                                     
                 |  |  |   _    _      __       _____    __    __             
                 |  |  |  | |  | |    /  \     |  _  \  |  |  /  |          
                  \  \/   | |  | |   /    \    | | | |  |  | /  /          
                 / \  \   | |__| |  /  /\  \   | |_| |  |  |/  /          
                |  |  |   |  __  | /  /__\  \  |    /   |      \           
                |  |  |   | |  | | |   __   |  |    \   |  |\   \          
                \     /   | |  | | |  |  |  |  | |\  \  |  | \   \       
                 \___/    |_|  |_| |__|  |__|  |_| \__\ |__|  \__/        
                                                                              
                      - O R C A' S   B I G   F R I E N D -                    
                                      &                                       
                       - I N T E G R A L  F E E D E R -                       
                                                                              
 v1 FN, 2020, v2 2021                                                         
------------------------------------------------------------------------------


Reading SHARK input file reaction-0-prod-pbeh3c-orca_opt.SHARKINP.tmp ... ok
----------------------
SHARK INTEGRAL PACKAGE
----------------------

Number of atoms                             ...     21
Number of basis functions                   ...    227
Number of shells                            ...    111
Maximum angular momentum                    ...      3
Integral batch strategy                     ... SHARK/LIBINT Hybrid
RI-J (if used) integral strategy            ... SPLIT-RIJ (Revised 2003 algorithm where possible)
Printlevel                                  ...      1
Contraction scheme used                     ... SEGMENTED contraction
Coulomb Range Separation                    ... NOT USED
Exchange Range Separation                   ... NOT USED
Finite Nucleus Model                        ... NOT USED
Auxiliary Coulomb fitting basis             ... AVAILABLE
   # of basis functions in Aux-J            ...    765
   # of shells in Aux-J                     ...    243
   Maximum angular momentum in Aux-J        ...      4
Auxiliary J/K fitting basis                 ... NOT available
Auxiliary Correlation fitting basis         ... NOT available
Auxiliary 'external' fitting basis          ... NOT available
Integral threshold                          ...     2.500000e-11
Primitive cut-off                           ...     2.500000e-12
Primitive pair pre-selection threshold      ...     2.500000e-12

Calculating pre-screening integrals         ... done (  0.0 sec) Dimension = 111
Organizing shell pair data                  ... done (  0.0 sec)
Shell pair information
Total number of shell pairs                 ...      6216
Shell pairs after pre-screening             ...      4839
Total number of primitive shell pairs       ...     21723
Primitive shell pairs kept                  ...     11407
          la=0 lb=0:   1660 shell pairs
          la=1 lb=0:   1591 shell pairs
          la=1 lb=1:    357 shell pairs
          la=2 lb=0:    705 shell pairs
          la=2 lb=1:    344 shell pairs
          la=2 lb=2:     84 shell pairs
          la=3 lb=0:     57 shell pairs
          la=3 lb=1:     27 shell pairs
          la=3 lb=2:     13 shell pairs
          la=3 lb=3:      1 shell pairs

Calculating one electron integrals          ... done (  0.0 sec)
Calculating ECP integrals                   ... done (  0.2 sec)
Calculating RI/J V-Matrix + Cholesky decomp.... done (  0.0 sec)
Calculating Nuclear repulsion               ... done (  0.0 sec) ENN=    925.873912682012 Eh

SHARK setup successfully completed in   0.5 seconds

Maximum memory used throughout the entire GTOINT-calculation: 17.5 MB


           ************************************************************
           *        Program running with 4 parallel MPI-processes     *
           *              working on a common directory               *
           ************************************************************
-------------------------------------------------------------------------------
                                 ORCA SCF
-------------------------------------------------------------------------------

------------
SCF SETTINGS
------------
Hamiltonian:
 Density Functional     Method          .... DFT(GTOs)
 Exchange Functional    Exchange        .... PBE
   PBE kappa parameter   XKappa         ....  1.024500
   PBE mue parameter    XMuePBE         ....  0.123457
 Correlation Functional Correlation     .... PBE
   PBE beta parameter  CBetaPBE         ....  0.030000
 LDA part of GGA corr.  LDAOpt          .... PW91-LDA
 Gradients option       PostSCFGGA      .... off
 Hybrid DFT is turned on
   Fraction HF Exchange ScalHFX         ....  0.420000
   Scaling of DF-GGA-X  ScalDFX         ....  0.580000
   Scaling of DF-GGA-C  ScalDFC         ....  1.000000
   Scaling of DF-LDA-C  ScalLDAC        ....  1.000000
   Perturbative correction              ....  0.000000
   Density functional embedding theory  .... OFF
 RI-approximation to the Coulomb term is turned on
   Number of AuxJ basis functions       .... 765
   RIJ-ON(X) (HFX calculated with O(N)) .... on
   Number of AuxJ basis functions       .... 765
   RIJ-COSX (HFX calculated with COS-X)).... on


General Settings:
 Integral files         IntName         .... reaction-0-prod-pbeh3c-orca_opt
 Hartree-Fock type      HFTyp           .... RHF
 Total Charge           Charge          ....    0
 Multiplicity           Mult            ....    1
 Number of Electrons    NEL             ....  106
 Basis Dimension        Dim             ....  227
 Nuclear Repulsion      ENuc            ....    925.8739126820 Eh

Convergence Acceleration:
 DIIS                   CNVDIIS         .... on
   Start iteration      DIISMaxIt       ....    12
   Startup error        DIISStart       ....  0.200000
   # of expansion vecs  DIISMaxEq       ....     5
   Bias factor          DIISBfac        ....   1.050
   Max. coefficient     DIISMaxC        ....  10.000
 Trust-Rad. Augm. Hess. CNVTRAH         .... auto
   Auto Start mean grad. ratio tolernc. ....  1.125000
   Auto Start start iteration           ....    20
   Auto Start num. interpolation iter.  ....    10
   Max. Number of Micro iterations      ....    16
   Max. Number of Macro iterations      .... Maxiter - #DIIS iter
   Number of Davidson start vectors     ....     2
   Converg. threshold I  (grad. norm)   ....   1.000e-05
   Converg. threshold II (energy diff.) ....   1.000e-08
   Grad. Scal. Fac. for Micro threshold ....   0.100
   Minimum threshold for Micro iter.    ....   0.010
   NR start threshold (gradient norm)   ....   0.001
   Initial trust radius                 ....   0.400
   Minimum AH scaling param. (alpha)    ....   1.000
   Maximum AH scaling param. (alpha)    .... 1000.000
   Orbital update algorithm             .... Taylor
   White noise on init. David. guess    .... on
   Maximum white noise                  ....   0.010
   Quad. conv. algorithm                .... NR
   COSX micro iterations for RIJONX calc.... off
 SOSCF                  CNVSOSCF        .... off
 Level Shifting         CNVShift        .... on
   Level shift para.    LevelShift      ....    0.2500
   Turn off err/grad.   ShiftErr        ....    0.0010
 Zerner damping         CNVZerner       .... off
 Static damping         CNVDamp         .... on
   Fraction old density DampFac         ....    0.7000
   Max. Damping (<1)    DampMax         ....    0.9800
   Min. Damping (>=0)   DampMin         ....    0.0000
   Turn off err/grad.   DampErr         ....    0.1000
 Fernandez-Rico         CNVRico         .... off

SCF Procedure:
 Maximum # iterations   MaxIter         ....   125
 SCF integral mode      SCFMode         .... Direct
   Integral package                     .... SHARK and LIBINT hybrid scheme
 Reset frequency        DirectResetFreq ....    20
 Integral Threshold     Thresh          ....  2.500e-11 Eh
 Primitive CutOff       TCut            ....  2.500e-12 Eh

Convergence Tolerance:
 Convergence Check Mode ConvCheckMode   .... Total+1el-Energy
 Convergence forced     ConvForced      .... 0
 Energy Change          TolE            ....  1.000e-08 Eh
 1-El. energy change                    ....  1.000e-05 Eh
 DIIS Error             TolErr          ....  5.000e-07


Diagonalization of the overlap matrix:
Smallest eigenvalue                        ... 4.398e-04
Time for diagonalization                   ...    0.014 sec
Threshold for overlap eigenvalues          ... 1.000e-08
Number of eigenvalues below threshold      ... 0
Time for construction of square roots      ...    0.005 sec
Total time needed                          ...    0.019 sec

--------------------------------
INITIAL GUESS: MINIMAL BASIS EHT
--------------------------------
The minimal basis has 81 functions
EHT matrix was diagonalized
Basis set overlap was calculated now projecting the orbitals
Using GuessMode=FMatrix for the initial guess
C*T matrix was formed
Effective Fockian was calculated
Effective Fockian was diagonalized
Initial density was built
                      ------------------
                      INITIAL GUESS DONE
                      ------------------
-------------------
DFT GRID GENERATION
-------------------

General Integration Accuracy     IntAcc      ... 4.159
Radial Grid Type                 RadialGrid  ... OptM3 with GC (2021)
Angular Grid (max. ang.)         AngularGrid ... 3 (Lebedev-194)
Angular grid pruning method      GridPruning ... 4 (adaptive)
Weight generation scheme         WeightScheme... Becke
Basis function cutoff            BFCut       ... 1.0000e-11
Integration weight cutoff        WCut        ... 1.0000e-14
Angular grids for H and He will be reduced by one unit
Partially contracted basis set               ... off
Rotationally invariant grid construction     ... off

Total number of grid points                  ...    56444
Total number of batches                      ...      896
Average number of points per batch           ...       62
Average number of grid points per atom       ...     2688
Time for grid setup =    0.247 sec

--------------------
COSX GRID GENERATION
--------------------

GRIDX 1
-------
General Integration Accuracy     IntAcc      ... 3.816
Radial Grid Type                 RadialGrid  ... OptM3 with GC (2021)
Angular Grid (max. ang.)         AngularGrid ... 1 (Lebedev-50)
Angular grid pruning method      GridPruning ... 4 (adaptive)
Weight generation scheme         WeightScheme... Becke
Basis function cutoff            BFCut       ... 1.0000e-11
Integration weight cutoff        WCut        ... 1.0000e-14
Angular grids for H and He will be reduced by one unit
Partially contracted basis set               ... on
Rotationally invariant grid construction     ... off

Total number of grid points                  ...    13596
Total number of batches                      ...      221
Average number of points per batch           ...       61
Average number of grid points per atom       ...      647
UseSFitting                                  ... on

GRIDX 2
-------
General Integration Accuracy     IntAcc      ... 4.020
Radial Grid Type                 RadialGrid  ... OptM3 with GC (2021)
Angular Grid (max. ang.)         AngularGrid ... 2 (Lebedev-110)
Angular grid pruning method      GridPruning ... 4 (adaptive)
Weight generation scheme         WeightScheme... Becke
Basis function cutoff            BFCut       ... 1.0000e-11
Integration weight cutoff        WCut        ... 1.0000e-14
Angular grids for H and He will be reduced by one unit
Partially contracted basis set               ... on
Rotationally invariant grid construction     ... off

Total number of grid points                  ...    30428
Total number of batches                      ...      486
Average number of points per batch           ...       62
Average number of grid points per atom       ...     1449
UseSFitting                                  ... on

GRIDX 3
-------
General Integration Accuracy     IntAcc      ... 4.338
Radial Grid Type                 RadialGrid  ... OptM3 with GC (2021)
Angular Grid (max. ang.)         AngularGrid ... 3 (Lebedev-194)
Angular grid pruning method      GridPruning ... 4 (adaptive)
Weight generation scheme         WeightScheme... Becke
Basis function cutoff            BFCut       ... 1.0000e-11
Integration weight cutoff        WCut        ... 1.0000e-14
Angular grids for H and He will be reduced by one unit
Partially contracted basis set               ... on
Rotationally invariant grid construction     ... off

Total number of grid points                  ...    66207
Total number of batches                      ...     1045
Average number of points per batch           ...       63
Average number of grid points per atom       ...     3153
UseSFitting                                  ... on

Time for X-Grid setup             =    0.576 sec

--------------
SCF ITERATIONS
--------------
ITER       Energy         Delta-E        Max-DP      RMS-DP      [F,P]     Damp
               ***  Starting incremental Fock matrix formation  ***
  0   -720.2447907526   0.000000000000 4.31509350  0.05078954  5.0956331 0.7000
  1   -713.9228200672   6.321970685411 3.63932582  0.05092460  3.9239928 0.7000
  2   -713.9727127904  -0.049892723235 2.24678026  0.02806184  2.6141483 0.7000
  3   -718.2575406949  -4.284827904484 3.74179649  0.03496817  1.9284020 0.7000
  4   -720.8647401615  -2.607199466660 1.94697481  0.02131519  1.2526566 0.7000
  5   -725.2700415717  -4.405301410192 1.29672644  0.01558632  0.9691847 0.7000
  6   -728.7469123515  -3.476870779778 0.88946109  0.01100641  0.6993642 0.7000
  7   -731.1942674514  -2.447355099848 0.63358622  0.00782579  0.4937580 0.7000
  8   -732.9368648359  -1.742597384535 0.45359535  0.00556418  0.3467876 0.7000
  9   -734.1791428152  -1.242277979297 0.32211743  0.00394996  0.2445152 0.7000
                               ***Turning on DIIS***
 10   -735.0607826500  -0.881639834813 0.22689182  0.00279864  0.1730764 0.7000
 11   -735.6839739493  -0.623191299280 0.15932193  0.00199634  0.1225592 0.7000
 12   -736.1233764758  -0.439402526540 0.37035110  0.00470755  0.0855227 0.0000
 13   -737.1597304062  -1.036353930388 0.00475940  0.00013493  0.0029168 0.0000
 14   -737.1600008821  -0.000270475878 0.00394261  0.00008375  0.0017888 0.0000
 15   -737.1600918301  -0.000090947971 0.00335734  0.00005339  0.0011902 0.0000
 16   -737.1601318023  -0.000039972220 0.00488051  0.00006465  0.0008975 0.0000
               *** Restarting incremental Fock matrix formation ***
                                   *** Resetting DIIS ***
 17   -737.1597293599   0.000402442395 0.00292093  0.00005268  0.0005759 0.0000
 18   -737.1597339853  -0.000004625410 0.00073318  0.00001361  0.0008045 0.0000
 19   -737.1597361055  -0.000002120251 0.00074994  0.00000900  0.0003013 0.0000
 20   -737.1597368364  -0.000000730806 0.00030730  0.00000404  0.0001230 0.0000
 21   -737.1597370192  -0.000000182844 0.00033415  0.00000352  0.0000565 0.0000
 22   -737.1597370860  -0.000000066799 0.00008903  0.00000117  0.0000263 0.0000
 23   -737.1597370881  -0.000000002092 0.00004640  0.00000057  0.0000158 0.0000
 24   -737.1597370920  -0.000000003922 0.00001658  0.00000021  0.0000076 0.0000
 25   -737.1597370930  -0.000000001017 0.00000346  0.00000006  0.0000020 0.0000
 26   -737.1597370904   0.000000002615 0.00000274  0.00000004  0.0000019 0.0000
                            ***DIIS convergence achieved***

               *****************************************************
               *                     SUCCESS                       *
               *           SCF CONVERGED AFTER  27 CYCLES          *
               *****************************************************

Old exchange energy                            =    -37.402368027 Eh
New exchange energy                            =    -37.402336948 Eh
Exchange energy change after final integration =      0.000031079 Eh
Total energy after final integration           =   -737.159706012 Eh
Final COS-X integration done in                =     3.944 sec

----------------
TOTAL SCF ENERGY
----------------

Total Energy       :         -737.15970601 Eh          -20059.13539 eV

Components:
Nuclear Repulsion  :          925.87391268 Eh           25194.31002 eV
Electronic Energy  :        -1663.03361869 Eh          -45253.44541 eV
One Electron Energy:        -2899.66786180 Eh          -78903.97392 eV
Two Electron Energy:         1236.63424310 Eh           33650.52851 eV
Max COSX asymmetry :            0.00003519 Eh               0.00096 eV

Virial components:
Potential Energy   :        -1390.23152210 Eh          -37830.12296 eV
Kinetic Energy     :          653.07181609 Eh           17770.98758 eV
Virial Ratio       :            2.12875749


DFT components:
N(Alpha)           :       52.999913835693 electrons
N(Beta)            :       52.999913835693 electrons
N(Total)           :      105.999827671386 electrons
E(X)               :      -49.987843443971 Eh       
E(C)               :       -4.856049905116 Eh       
E(XC)              :      -54.843893349086 Eh       
DFET-embed. en.    :        0.000000000000 Eh       

---------------
SCF CONVERGENCE
---------------

  Last Energy change         ...   -2.4102e-10  Tolerance :   1.0000e-08
  Last MAX-Density change    ...    0.0000e+00  Tolerance :   1.0000e-07
  Last RMS-Density change    ...    0.0000e+00  Tolerance :   5.0000e-09
  Last DIIS Error            ...    6.3266e-07  Tolerance :   5.0000e-07

             **** THE GBW FILE WAS UPDATED (reaction-0-prod-pbeh3c-orca_opt.gbw) ****
             **** DENSITY reaction-0-prod-pbeh3c-orca_opt.scfp WAS UPDATED ****
             **** ENERGY FILE WAS UPDATED (reaction-0-prod-pbeh3c-orca_opt.en.tmp) ****
             **** THE GBW FILE WAS UPDATED (reaction-0-prod-pbeh3c-orca_opt.gbw) ****
             **** DENSITY reaction-0-prod-pbeh3c-orca_opt.scfp WAS UPDATED ****
----------------
ORBITAL ENERGIES
----------------

  NO   OCC          E(Eh)            E(eV) 
   0   2.0000     -19.611999      -533.6696 
   1   2.0000     -19.585499      -532.9485 
   2   2.0000     -19.488502      -530.3091 
   3   2.0000     -19.472738      -529.8801 
   4   2.0000     -10.654739      -289.9302 
   5   2.0000     -10.547885      -287.0226 
   6   2.0000     -10.439531      -284.0741 
   7   2.0000     -10.431509      -283.8558 
   8   2.0000     -10.430645      -283.8323 
   9   2.0000     -10.429191      -283.7927 
  10   2.0000     -10.427689      -283.7518 
  11   2.0000     -10.427486      -283.7463 
  12   2.0000      -3.636937       -98.9661 
  13   2.0000      -2.285523       -62.1923 
  14   2.0000      -2.282363       -62.1062 
  15   2.0000      -2.250369       -61.2356 
  16   2.0000      -1.295216       -35.2446 
  17   2.0000      -1.211523       -32.9672 
  18   2.0000      -1.186081       -32.2749 
  19   2.0000      -1.078890       -29.3581 
  20   2.0000      -0.937047       -25.4983 
  21   2.0000      -0.820047       -22.3146 
  22   2.0000      -0.813261       -22.1300 
  23   2.0000      -0.787618       -21.4322 
  24   2.0000      -0.724878       -19.7249 
  25   2.0000      -0.663372       -18.0513 
  26   2.0000      -0.653931       -17.7944 
  27   2.0000      -0.648590       -17.6490 
  28   2.0000      -0.621431       -16.9100 
  29   2.0000      -0.581698       -15.8288 
  30   2.0000      -0.566709       -15.4209 
  31   2.0000      -0.547639       -14.9020 
  32   2.0000      -0.525355       -14.2956 
  33   2.0000      -0.516028       -14.0418 
  34   2.0000      -0.496550       -13.5118 
  35   2.0000      -0.495994       -13.4967 
  36   2.0000      -0.489375       -13.3166 
  37   2.0000      -0.465339       -12.6625 
  38   2.0000      -0.460622       -12.5342 
  39   2.0000      -0.457573       -12.4512 
  40   2.0000      -0.438288       -11.9264 
  41   2.0000      -0.409255       -11.1364 
  42   2.0000      -0.383373       -10.4321 
  43   2.0000      -0.375995       -10.2314 
  44   2.0000      -0.370675       -10.0866 
  45   2.0000      -0.353482        -9.6187 
  46   2.0000      -0.345385        -9.3984 
  47   2.0000      -0.319410        -8.6916 
  48   2.0000      -0.313115        -8.5203 
  49   2.0000      -0.301882        -8.2146 
  50   2.0000      -0.277097        -7.5402 
  51   2.0000      -0.272096        -7.4041 
  52   2.0000      -0.261248        -7.1089 
  53   0.0000      -0.032448        -0.8830 
  54   0.0000      -0.012115        -0.3297 
  55   0.0000       0.036572         0.9952 
  56   0.0000       0.040009         1.0887 
  57   0.0000       0.044502         1.2110 
  58   0.0000       0.059627         1.6225 
  59   0.0000       0.079017         2.1502 
  60   0.0000       0.093742         2.5508 
  61   0.0000       0.107969         2.9380 
  62   0.0000       0.119028         3.2389 
  63   0.0000       0.140770         3.8305 
  64   0.0000       0.177962         4.8426 
  65   0.0000       0.207053         5.6342 
  66   0.0000       0.217580         5.9206 
  67   0.0000       0.218031         5.9329 
  68   0.0000       0.236248         6.4286 
  69   0.0000       0.237959         6.4752 
  70   0.0000       0.257764         7.0141 
  71   0.0000       0.270608         7.3636 
  72   0.0000       0.276590         7.5264 
  73   0.0000       0.305866         8.3230 
  74   0.0000       0.321948         8.7606 
  75   0.0000       0.342882         9.3303 
  76   0.0000       0.350422         9.5355 
  77   0.0000       0.358701         9.7607 
  78   0.0000       0.365798         9.9539 
  79   0.0000       0.401560        10.9270 
  80   0.0000       0.429922        11.6988 
  81   0.0000       0.460200        12.5227 
  82   0.0000       0.470422        12.8008 
  83   0.0000       0.487246        13.2586 
  84   0.0000       0.511502        13.9187 
  85   0.0000       0.531495        14.4627 
  86   0.0000       0.549071        14.9410 
  87   0.0000       0.561030        15.2664 
  88   0.0000       0.564692        15.3661 
  89   0.0000       0.581717        15.8293 
  90   0.0000       0.609896        16.5961 
  91   0.0000       0.613082        16.6828 
  92   0.0000       0.621720        16.9179 
  93   0.0000       0.640578        17.4310 
  94   0.0000       0.641391        17.4531 
  95   0.0000       0.648492        17.6464 
  96   0.0000       0.657217        17.8838 
  97   0.0000       0.667771        18.1710 
  98   0.0000       0.669314        18.2130 
  99   0.0000       0.691332        18.8121 
 100   0.0000       0.701670        19.0934 
 101   0.0000       0.708271        19.2730 
 102   0.0000       0.715842        19.4791 
 103   0.0000       0.744981        20.2720 
 104   0.0000       0.763270        20.7696 
 105   0.0000       0.770403        20.9637 
 106   0.0000       0.799012        21.7422 
 107   0.0000       0.808115        21.9899 
 108   0.0000       0.814759        22.1707 
 109   0.0000       0.838229        22.8094 
 110   0.0000       0.866545        23.5799 
 111   0.0000       0.879326        23.9277 
 112   0.0000       0.916498        24.9392 
 113   0.0000       0.933276        25.3957 
 114   0.0000       0.963272        26.2120 
 115   0.0000       0.970335        26.4041 
 116   0.0000       0.974695        26.5228 
 117   0.0000       0.981158        26.6987 
 118   0.0000       0.995196        27.0807 
 119   0.0000       1.003783        27.3143 
 120   0.0000       1.033082        28.1116 
 121   0.0000       1.062324        28.9073 
 122   0.0000       1.067646        29.0521 
 123   0.0000       1.078336        29.3430 
 124   0.0000       1.090075        29.6625 
 125   0.0000       1.096340        29.8329 
 126   0.0000       1.116060        30.3695 
 127   0.0000       1.132754        30.8238 
 128   0.0000       1.137352        30.9489 
 129   0.0000       1.146744        31.2045 
 130   0.0000       1.164270        31.6814 
 131   0.0000       1.190211        32.3873 
 132   0.0000       1.210713        32.9452 
 133   0.0000       1.268165        34.5085 
 134   0.0000       1.278989        34.8031 
 135   0.0000       1.313103        35.7313 
 136   0.0000       1.330177        36.1960 
 137   0.0000       1.343699        36.5639 
 138   0.0000       1.361957        37.0607 
 139   0.0000       1.409782        38.3621 
 140   0.0000       1.420977        38.6668 
 141   0.0000       1.446831        39.3703 
 142   0.0000       1.456385        39.6302 
 143   0.0000       1.496322        40.7170 
 144   0.0000       1.511780        41.1376 
 145   0.0000       1.538378        41.8614 
 146   0.0000       1.564140        42.5624 
 147   0.0000       1.567072        42.6422 
 148   0.0000       1.586024        43.1579 
 149   0.0000       1.594027        43.3757 
 150   0.0000       1.606061        43.7031 
 151   0.0000       1.661033        45.1990 
 152   0.0000       1.742482        47.4154 
 153   0.0000       1.752104        47.6772 
 154   0.0000       1.773681        48.2643 
 155   0.0000       1.819629        49.5146 
 156   0.0000       1.836070        49.9620 
 157   0.0000       1.854862        50.4734 
 158   0.0000       1.860118        50.6164 
 159   0.0000       1.868163        50.8353 
 160   0.0000       1.892851        51.5071 
 161   0.0000       1.922373        52.3104 
 162   0.0000       1.936630        52.6984 
 163   0.0000       1.953859        53.1672 
 164   0.0000       1.982615        53.9497 
 165   0.0000       1.995236        54.2931 
 166   0.0000       2.004773        54.5527 
 167   0.0000       2.017697        54.9043 
 168   0.0000       2.050446        55.7955 
 169   0.0000       2.078206        56.5508 
 170   0.0000       2.086632        56.7802 
 171   0.0000       2.128549        57.9208 
 172   0.0000       2.157509        58.7088 
 173   0.0000       2.178025        59.2671 
 174   0.0000       2.216509        60.3143 
 175   0.0000       2.226897        60.5970 
 176   0.0000       2.232157        60.7401 
 177   0.0000       2.246590        61.1328 
 178   0.0000       2.282896        62.1208 
 179   0.0000       2.319053        63.1046 
 180   0.0000       2.356175        64.1148 
 181   0.0000       2.390765        65.0560 
 182   0.0000       2.397132        65.2293 
 183   0.0000       2.398796        65.2746 
 184   0.0000       2.429697        66.1154 
 185   0.0000       2.448331        66.6225 
 186   0.0000       2.475426        67.3598 
 187   0.0000       2.476604        67.3918 
 188   0.0000       2.490262        67.7635 
 189   0.0000       2.498468        67.9868 
 190   0.0000       2.525978        68.7354 
 191   0.0000       2.539368        69.0997 
 192   0.0000       2.563905        69.7674 
 193   0.0000       2.614099        71.1332 
 194   0.0000       2.647353        72.0381 
 195   0.0000       2.656400        72.2843 
 196   0.0000       2.670004        72.6545 
 197   0.0000       2.721521        74.0563 
 198   0.0000       2.756622        75.0115 
 199   0.0000       2.761769        75.1516 
 200   0.0000       2.779466        75.6331 
 201   0.0000       2.791556        75.9621 
 202   0.0000       2.811345        76.5006 
 203   0.0000       2.829512        76.9949 
 204   0.0000       2.831568        77.0509 
 205   0.0000       2.884544        78.4924 
 206   0.0000       2.926841        79.6434 
 207   0.0000       2.974006        80.9268 
 208   0.0000       2.999972        81.6334 
 209   0.0000       3.023099        82.2627 
 210   0.0000       3.053473        83.0892 
 211   0.0000       3.104641        84.4816 
 212   0.0000       3.178180        86.4827 
 213   0.0000       3.478688        94.6599 
 214   0.0000      13.291756       361.6871 
 215   0.0000      13.673554       372.0763 
 216   0.0000      13.699216       372.7746 
 217   0.0000      13.769626       374.6906 
 218   0.0000      13.935418       379.2020 
 219   0.0000      14.155639       385.1945 
 220   0.0000      14.157936       385.2570 
 221   0.0000      14.582630       396.8135 
 222   0.0000      25.408421       691.3983 
 223   0.0000      25.574771       695.9249 
 224   0.0000      25.701312       699.3682 
 225   0.0000      25.773297       701.3271 
 226   0.0000      51.611584      1404.4226 

                    ********************************
                    * MULLIKEN POPULATION ANALYSIS *
                    ********************************

-----------------------
MULLIKEN ATOMIC CHARGES
-----------------------
   0 C :   -0.242655
   1 C :   -0.222011
   2 C :   -0.226060
   3 C :   -0.220365
   4 C :   -0.072064
   5 C :   -0.245747
   6 H :    0.220354
   7 H :    0.211292
   8 H :    0.209615
   9 H :    0.211176
  10 H :    0.207911
  11 Pd:    0.342139
  12 O :   -0.474455
  13 O :   -0.473782
  14 O :   -0.362902
  15 C :    0.405793
  16 O :   -0.530943
  17 H :    0.470122
  18 C :    0.376794
  19 H :    0.171200
  20 H :    0.244589
Sum of atomic charges:   -0.0000000

--------------------------------
MULLIKEN REDUCED ORBITAL CHARGES
--------------------------------
  0 C s       :     3.269964  s :     3.269964
      pz      :     1.005189  p :     2.932116
      px      :     0.932165
      py      :     0.994762
      dz2     :     0.007618  d :     0.040575
      dxz     :     0.007421
      dyz     :     0.011270
      dx2y2   :     0.007588
      dxy     :     0.006678
  1 C s       :     3.248048  s :     3.248048
      pz      :     1.008907  p :     2.933358
      px      :     0.989956
      py      :     0.934496
      dz2     :     0.007832  d :     0.040605
      dxz     :     0.010362
      dyz     :     0.007436
      dx2y2   :     0.008140
      dxy     :     0.006834
  2 C s       :     3.237449  s :     3.237449
      pz      :     0.927940  p :     2.948503
      px      :     1.014305
      py      :     1.006258
      dz2     :     0.010641  d :     0.040107
      dxz     :     0.007670
      dyz     :     0.008113
      dx2y2   :     0.004291
      dxy     :     0.009392
  3 C s       :     3.245848  s :     3.245848
      pz      :     0.990028  p :     2.933903
      px      :     0.945291
      py      :     0.998584
      dz2     :     0.007470  d :     0.040613
      dxz     :     0.007365
      dyz     :     0.011253
      dx2y2   :     0.008009
      dxy     :     0.006517
  4 C s       :     3.237744  s :     3.237744
      pz      :     0.889898  p :     2.791298
      px      :     0.962412
      py      :     0.938989
      dz2     :     0.008869  d :     0.043021
      dxz     :     0.009956
      dyz     :     0.009980
      dx2y2   :     0.008376
      dxy     :     0.005841
  5 C s       :     3.265990  s :     3.265990
      pz      :     1.034700  p :     2.939150
      px      :     0.977173
      py      :     0.927277
      dz2     :     0.008137  d :     0.040606
      dxz     :     0.010109
      dyz     :     0.007300
      dx2y2   :     0.007801
      dxy     :     0.007258
  6 H s       :     0.779646  s :     0.779646
  7 H s       :     0.788708  s :     0.788708
  8 H s       :     0.790385  s :     0.790385
  9 H s       :     0.788824  s :     0.788824
 10 H s       :     0.792089  s :     0.792089
 11 Pds       :     2.517869  s :     2.517869
      pz      :     2.060170  p :     6.289073
      px      :     2.128407
      py      :     2.100496
      dz2     :     1.928474  d :     8.846181
      dxz     :     1.892144
      dyz     :     1.946684
      dx2y2   :     1.966802
      dxy     :     1.112076
      f0      :     0.000458  f :     0.004737
      f+1     :     0.000486
      f-1     :     0.000379
      f+2     :     0.000180
      f-2     :     0.000832
      f+3     :     0.000835
      f-3     :     0.001566
 12 O s       :     3.800197  s :     3.800197
      pz      :     1.538827  p :     4.646105
      px      :     1.670001
      py      :     1.437277
      dz2     :     0.004460  d :     0.028154
      dxz     :     0.001432
      dyz     :     0.008647
      dx2y2   :     0.007247
      dxy     :     0.006369
 13 O s       :     3.809457  s :     3.809457
      pz      :     1.620876  p :     4.633314
      px      :     1.457576
      py      :     1.554862
      dz2     :     0.003845  d :     0.031011
      dxz     :     0.004577
      dyz     :     0.006569
      dx2y2   :     0.006290
      dxy     :     0.009729
 14 O s       :     3.799185  s :     3.799185
      pz      :     1.329051  p :     4.528179
      px      :     1.580727
      py      :     1.618402
      dz2     :     0.011475  d :     0.035537
      dxz     :     0.010691
      dyz     :     0.008636
      dx2y2   :     0.002154
      dxy     :     0.002581
 15 C s       :     3.065729  s :     3.065729
      pz      :     0.847497  p :     2.400114
      px      :     0.738469
      py      :     0.814148
      dz2     :     0.030315  d :     0.128365
      dxz     :     0.033317
      dyz     :     0.041587
      dx2y2   :     0.011395
      dxy     :     0.011751
 16 O s       :     3.808873  s :     3.808873
      pz      :     1.402682  p :     4.691934
      px      :     1.639521
      py      :     1.649730
      dz2     :     0.010856  d :     0.030136
      dxz     :     0.001711
      dyz     :     0.005474
      dx2y2   :     0.005636
      dxy     :     0.006459
 17 H s       :     0.529878  s :     0.529878
 18 C s       :     3.039198  s :     3.039198
      pz      :     0.741085  p :     2.441926
      px      :     0.906290
      py      :     0.794551
      dz2     :     0.013089  d :     0.142081
      dxz     :     0.012146
      dyz     :     0.028074
      dx2y2   :     0.048012
      dxy     :     0.040760
 19 H s       :     0.828800  s :     0.828800
 20 H s       :     0.755411  s :     0.755411


                     *******************************
                     * LOEWDIN POPULATION ANALYSIS *
                     *******************************

----------------------
LOEWDIN ATOMIC CHARGES
----------------------
   0 C :   -0.118341
   1 C :   -0.131680
   2 C :   -0.148888
   3 C :   -0.134530
   4 C :   -0.001480
   5 C :   -0.124683
   6 H :    0.149871
   7 H :    0.133502
   8 H :    0.131373
   9 H :    0.146111
  10 H :    0.131870
  11 Pd:   -0.365333
  12 O :   -0.215833
  13 O :   -0.152915
  14 O :   -0.015759
  15 C :    0.207473
  16 O :   -0.212767
  17 H :    0.354288
  18 C :    0.128155
  19 H :    0.101753
  20 H :    0.137814

-------------------------------
LOEWDIN REDUCED ORBITAL CHARGES
-------------------------------
  0 C s       :     2.877433  s :     2.877433
      pz      :     1.062379  p :     3.148662
      px      :     1.041872
      py      :     1.044410
      dz2     :     0.017697  d :     0.092247
      dxz     :     0.018908
      dyz     :     0.022899
      dx2y2   :     0.016307
      dxy     :     0.016437
  1 C s       :     2.888498  s :     2.888498
      pz      :     1.057771  p :     3.150800
      px      :     1.039433
      py      :     1.053597
      dz2     :     0.017603  d :     0.092382
      dxz     :     0.020780
      dyz     :     0.018713
      dx2y2   :     0.018097
      dxy     :     0.017189
  2 C s       :     2.886341  s :     2.886341
      pz      :     1.072414  p :     3.171050
      px      :     1.046674
      py      :     1.051962
      dz2     :     0.025117  d :     0.091497
      dxz     :     0.018839
      dyz     :     0.020555
      dx2y2   :     0.009272
      dxy     :     0.017715
  3 C s       :     2.888273  s :     2.888273
      pz      :     1.061717  p :     3.153745
      px      :     1.048070
      py      :     1.043957
      dz2     :     0.017539  d :     0.092512
      dxz     :     0.018749
      dyz     :     0.022980
      dx2y2   :     0.017353
      dxy     :     0.015891
  4 C s       :     2.871466  s :     2.871466
      pz      :     1.042697  p :     3.030540
      px      :     0.985976
      py      :     1.001867
      dz2     :     0.021858  d :     0.099474
      dxz     :     0.023246
      dyz     :     0.024391
      dx2y2   :     0.017297
      dxy     :     0.012683
  5 C s       :     2.876881  s :     2.876881
      pz      :     1.062450  p :     3.155396
      px      :     1.039930
      py      :     1.053016
      dz2     :     0.018142  d :     0.092406
      dxz     :     0.020174
      dyz     :     0.018398
      dx2y2   :     0.017293
      dxy     :     0.018398
  6 H s       :     0.850129  s :     0.850129
  7 H s       :     0.866498  s :     0.866498
  8 H s       :     0.868627  s :     0.868627
  9 H s       :     0.853889  s :     0.853889
 10 H s       :     0.868130  s :     0.868130
 11 Pds       :     2.510462  s :     2.510462
      pz      :     2.123558  p :     6.642560
      px      :     2.291158
      py      :     2.227845
      dz2     :     1.993302  d :     9.205953
      dxz     :     1.936647
      dyz     :     1.985847
      dx2y2   :     2.010506
      dxy     :     1.279652
      f0      :     0.000635  f :     0.006358
      f+1     :     0.000620
      f-1     :     0.000487
      f+2     :     0.000201
      f-2     :     0.001194
      f+3     :     0.001051
      f-3     :     0.002170
 12 O s       :     3.486328  s :     3.486328
      pz      :     1.522398  p :     4.675042
      px      :     1.652514
      py      :     1.500130
      dz2     :     0.006972  d :     0.054463
      dxz     :     0.003360
      dyz     :     0.014472
      dx2y2   :     0.015672
      dxy     :     0.013987
 13 O s       :     3.456690  s :     3.456690
      pz      :     1.579970  p :     4.635296
      px      :     1.479860
      py      :     1.575466
      dz2     :     0.007504  d :     0.060929
      dxz     :     0.008364
      dyz     :     0.009069
      dx2y2   :     0.013367
      dxy     :     0.022625
 14 O s       :     3.423630  s :     3.423630
      pz      :     1.420808  p :     4.521763
      px      :     1.531808
      py      :     1.569146
      dz2     :     0.028296  d :     0.070366
      dxz     :     0.017740
      dyz     :     0.016112
      dx2y2   :     0.004059
      dxy     :     0.004159
 15 C s       :     2.863114  s :     2.863114
      pz      :     0.973170  p :     2.649505
      px      :     0.796753
      py      :     0.879582
      dz2     :     0.068383  d :     0.279908
      dxz     :     0.074629
      dyz     :     0.089406
      dx2y2   :     0.022333
      dxy     :     0.025157
 16 O s       :     3.479201  s :     3.479201
      pz      :     1.374731  p :     4.678732
      px      :     1.643084
      py      :     1.660917
      dz2     :     0.019351  d :     0.054834
      dxz     :     0.005607
      dyz     :     0.010034
      dx2y2   :     0.007292
      dxy     :     0.012550
 17 H s       :     0.645712  s :     0.645712
 18 C s       :     2.846173  s :     2.846173
      pz      :     0.762556  p :     2.711187
      px      :     1.007476
      py      :     0.941155
      dz2     :     0.028582  d :     0.314484
      dxz     :     0.023303
      dyz     :     0.063227
      dx2y2   :     0.107091
      dxy     :     0.092282
 19 H s       :     0.898247  s :     0.898247
 20 H s       :     0.862186  s :     0.862186


                      *****************************
                      * MAYER POPULATION ANALYSIS *
                      *****************************

  NA   - Mulliken gross atomic population
  ZA   - Total nuclear charge
  QA   - Mulliken gross atomic charge
  VA   - Mayer's total valence
  BVA  - Mayer's bonded valence
  FA   - Mayer's free valence

  ATOM       NA         ZA         QA         VA         BVA        FA
  0 C      6.2427     6.0000    -0.2427     3.8045     3.8045    -0.0000
  1 C      6.2220     6.0000    -0.2220     3.8145     3.8145     0.0000
  2 C      6.2261     6.0000    -0.2261     3.8217     3.8217    -0.0000
  3 C      6.2204     6.0000    -0.2204     3.8147     3.8147    -0.0000
  4 C      6.0721     6.0000    -0.0721     3.8231     3.8231     0.0000
  5 C      6.2457     6.0000    -0.2457     3.8009     3.8009    -0.0000
  6 H      0.7796     1.0000     0.2204     0.9137     0.9137    -0.0000
  7 H      0.7887     1.0000     0.2113     0.9139     0.9139     0.0000
  8 H      0.7904     1.0000     0.2096     0.9144     0.9144    -0.0000
  9 H      0.7888     1.0000     0.2112     0.9184     0.9184     0.0000
 10 H      0.7921     1.0000     0.2079     0.9148     0.9148     0.0000
 11 Pd    17.6579    18.0000     0.3421     2.4195     2.4195    -0.0000
 12 O      8.4745     8.0000    -0.4745     2.1428     2.1428     0.0000
 13 O      8.4738     8.0000    -0.4738     2.1709     2.1709     0.0000
 14 O      8.3629     8.0000    -0.3629     2.2824     2.2824    -0.0000
 15 C      5.5942     6.0000     0.4058     3.8417     3.8417    -0.0000
 16 O      8.5309     8.0000    -0.5309     2.0606     2.0606     0.0000
 17 H      0.5299     1.0000     0.4701     0.7605     0.7605    -0.0000
 18 C      5.6232     6.0000     0.3768     3.9620     3.9620    -0.0000
 19 H      0.8288     1.0000     0.1712     0.9202     0.9202     0.0000
 20 H      0.7554     1.0000     0.2446     0.8913     0.8913     0.0000

  Mayer bond orders larger than 0.100000
B(  0-C ,  1-C ) :   1.4148 B(  0-C ,  4-C ) :   1.3932 B(  0-C ,  6-H ) :   0.9178 
B(  1-C ,  2-C ) :   1.4267 B(  1-C ,  7-H ) :   0.9207 B(  2-C ,  3-C ) :   1.4301 
B(  2-C ,  8-H ) :   0.9224 B(  3-C ,  5-C ) :   1.4121 B(  3-C , 10-H ) :   0.9216 
B(  4-C ,  5-C ) :   1.3896 B(  4-C , 11-Pd) :   0.9163 B(  5-C ,  9-H ) :   0.9194 
B( 11-Pd, 12-O ) :   0.3531 B( 11-Pd, 13-O ) :   0.5407 B( 11-Pd, 14-O ) :   0.3713 
B( 12-O , 13-O ) :   0.1189 B( 12-O , 18-C ) :   1.5978 B( 13-O , 18-C ) :   1.4499 
B( 14-O , 15-C ) :   1.7680 B( 15-C , 16-O ) :   1.1626 B( 15-C , 20-H ) :   0.8657 
B( 16-O , 17-H ) :   0.7320 B( 18-C , 19-H ) :   0.8858 

-------
TIMINGS
-------

Total SCF time: 0 days 0 hours 0 min 45 sec 

Total time                  ....      45.853 sec
Sum of individual times     ....      45.496 sec  ( 99.2%)

Fock matrix formation       ....      44.201 sec  ( 96.4%)
  Split-RI-J                ....       4.878 sec  ( 11.0% of F)
  Chain of spheres X        ....      34.571 sec  ( 78.2% of F)
  XC integration            ....       4.400 sec  ( 10.0% of F)
    Basis function eval.    ....       1.650 sec  ( 37.5% of XC)
    Density eval.           ....       0.930 sec  ( 21.1% of XC)
    XC-Functional eval.     ....       0.387 sec  (  8.8% of XC)
    XC-Potential eval.      ....       1.038 sec  ( 23.6% of XC)
Diagonalization             ....       0.259 sec  (  0.6%)
Density matrix formation    ....       0.014 sec  (  0.0%)
Population analysis         ....       0.009 sec  (  0.0%)
Initial guess               ....       0.026 sec  (  0.1%)
Orbital Transformation      ....       0.000 sec  (  0.0%)
Orbital Orthonormalization  ....       0.000 sec  (  0.0%)
DIIS solution               ....       0.164 sec  (  0.4%)
Grid generation             ....       0.822 sec  (  1.8%)

Maximum memory used throughout the entire SCF-calculation: 73.8 MB


-------------------------------------------------------------------------------
                          DFT DISPERSION CORRECTION                            
                                                                               
                              DFTD3 V3.1  Rev 1                                
                          USING Becke-Johnson damping                          
-------------------------------------------------------------------------------
The PBEh-3c composite method is recognized
Using three-body term ABC
Active option DFTDOPT                   ...         4   

molecular C6(AA) [au] = 6824.497704 


            DFT-D V3
 parameters
 s6 scaling factor         :     1.0000 
 a1 scaling factor         :     0.4860 
 s8 scaling factor         :     0.0000 
 a2 scaling factor         :     4.5000 
 Damping factor alpha9(ATM):    16.0000 
 ad hoc parameters k1-k3   :    16.0000     1.3333    -4.0000 

 Edisp/kcal,au: -7.975500980456  -0.012709768473 
 E6   /kcal   :  -8.008463372 
 E8   /kcal   :  -0.000000000 
 E6(ABC)      :   0.032962391 
 % E8         :   0.000000000 
 % E6(ABC)    :  -0.413295557 

-------------------------   ----------------
Dispersion correction           -0.012709768
-------------------------   ----------------

 ** NOTE ** -> element pd will be treated as ni
------------------   -----------------
gCP correction             0.047774578
[...]
 205   0.0000       2.848490        77.5114 
 206   0.0000       2.903424        79.0062 
 207   0.0000       2.970378        80.8281 
 208   0.0000       2.994810        81.4929 
 209   0.0000       3.025022        82.3150 
 210   0.0000       3.046020        82.8864 
 211   0.0000       3.104114        84.4672 
 212   0.0000       3.170475        86.2730 
 213   0.0000       3.471084        94.4530 
 214   0.0000      13.292117       361.6969 
 215   0.0000      13.671307       372.0152 
 216   0.0000      13.683282       372.3410 
 217   0.0000      13.800505       375.5308 
 218   0.0000      13.925424       378.9300 
 219   0.0000      14.133559       384.5937 
 220   0.0000      14.153908       385.1474 
 221   0.0000      14.569515       396.4567 
 222   0.0000      25.433828       692.0896 
 223   0.0000      25.582389       696.1322 
 224   0.0000      25.666219       698.4133 
 225   0.0000      25.756778       700.8776 
 226   0.0000      51.604563      1404.2315 

                    ********************************
                    * MULLIKEN POPULATION ANALYSIS *
                    ********************************

-----------------------
MULLIKEN ATOMIC CHARGES
-----------------------
   0 C :   -0.269625
   1 C :   -0.220681
   2 C :   -0.231694
   3 C :   -0.221927
   4 C :   -0.091027
   5 C :   -0.233942
   6 H :    0.222785
   7 H :    0.209272
   8 H :    0.210837
   9 H :    0.234918
  10 H :    0.212128
  11 Pd:    0.356283
  12 O :   -0.468596
  13 O :   -0.486993
  14 O :   -0.371050
  15 C :    0.390473
  16 O :   -0.496215
  17 H :    0.469370
  18 C :    0.378635
  19 H :    0.179248
  20 H :    0.227801
Sum of atomic charges:   -0.0000000

--------------------------------
MULLIKEN REDUCED ORBITAL CHARGES
--------------------------------
  0 C s       :     3.258986  s :     3.258986
      pz      :     1.011544  p :     2.970300
      px      :     0.912622
      py      :     1.046134
      dz2     :     0.004094  d :     0.040340
      dxz     :     0.006941
      dyz     :     0.006797
      dx2y2   :     0.012613
      dxy     :     0.009895
  1 C s       :     3.244529  s :     3.244529
      pz      :     1.002874  p :     2.935692
      px      :     1.010587
      py      :     0.922232
      dz2     :     0.003807  d :     0.040460
      dxz     :     0.007210
      dyz     :     0.007220
      dx2y2   :     0.011757
      dxy     :     0.010465
  2 C s       :     3.242293  s :     3.242293
      pz      :     0.983672  p :     2.949450
      px      :     0.994403
      py      :     0.971375
      dz2     :     0.006470  d :     0.039950
      dxz     :     0.005194
      dyz     :     0.005855
      dx2y2   :     0.009009
      dxy     :     0.013422
  3 C s       :     3.246830  s :     3.246830
      pz      :     0.995432  p :     2.934646
      px      :     0.913285
      py      :     1.025929
      dz2     :     0.004224  d :     0.040450
      dxz     :     0.007294
      dyz     :     0.006439
      dx2y2   :     0.012872
      dxy     :     0.009622
  4 C s       :     3.260255  s :     3.260255
      pz      :     0.919396  p :     2.786103
      px      :     0.951733
      py      :     0.914975
      dz2     :     0.005674  d :     0.044669
      dxz     :     0.008075
      dyz     :     0.007398
      dx2y2   :     0.013655
      dxy     :     0.009867
  5 C s       :     3.267603  s :     3.267603
      pz      :     1.006762  p :     2.926085
      px      :     1.003915
      py      :     0.915408
      dz2     :     0.003699  d :     0.040254
      dxz     :     0.006910
      dyz     :     0.006754
      dx2y2   :     0.011510
      dxy     :     0.011381
  6 H s       :     0.777215  s :     0.777215
  7 H s       :     0.790728  s :     0.790728
  8 H s       :     0.789163  s :     0.789163
  9 H s       :     0.765082  s :     0.765082
 10 H s       :     0.787872  s :     0.787872
 11 Pds       :     2.522349  s :     2.522349
      pz      :     2.052535  p :     6.278783
      px      :     2.124158
      py      :     2.102090
      dz2     :     1.922197  d :     8.838098
      dxz     :     1.952926
      dyz     :     1.952812
      dx2y2   :     1.919576
      dxy     :     1.090587
      f0      :     0.000325  f :     0.004487
      f+1     :     0.000524
      f-1     :     0.000399
      f+2     :     0.000106
      f-2     :     0.000590
      f+3     :     0.000911
      f-3     :     0.001632
 12 O s       :     3.801064  s :     3.801064
      pz      :     1.544405  p :     4.639262
      px      :     1.696699
      py      :     1.398158
      dz2     :     0.003485  d :     0.028270
      dxz     :     0.000813
      dyz     :     0.009413
      dx2y2   :     0.008328
      dxy     :     0.006232
 13 O s       :     3.812255  s :     3.812255
      pz      :     1.636455  p :     4.644791
      px      :     1.409832
      py      :     1.598504
      dz2     :     0.003394  d :     0.029947
      dxz     :     0.004630
      dyz     :     0.005632
      dx2y2   :     0.005862
      dxy     :     0.010430
 14 O s       :     3.782590  s :     3.782590
      pz      :     1.407476  p :     4.556885
      px      :     1.496033
      py      :     1.653376
      dz2     :     0.010417  d :     0.031574
      dxz     :     0.008540
      dyz     :     0.007278
      dx2y2   :     0.003105
      dxy     :     0.002233
 15 C s       :     3.054439  s :     3.054439
      pz      :     0.777734  p :     2.419981
      px      :     0.816426
      py      :     0.825822
      dz2     :     0.040115  d :     0.135107
      dxz     :     0.030514
      dyz     :     0.040665
      dx2y2   :     0.008332
      dxy     :     0.015482
 16 O s       :     3.796801  s :     3.796801
      pz      :     1.327759  p :     4.667197
      px      :     1.693503
      py      :     1.645935
      dz2     :     0.002959  d :     0.032217
      dxz     :     0.009576
      dyz     :     0.008010
      dx2y2   :     0.006213
      dxy     :     0.005459
 17 H s       :     0.530630  s :     0.530630
 18 C s       :     3.045542  s :     3.045542
      pz      :     0.737091  p :     2.437117
      px      :     0.891301
      py      :     0.808726
      dz2     :     0.008870  d :     0.138705
      dxz     :     0.010420
      dyz     :     0.027761
      dx2y2   :     0.044748
      dxy     :     0.046907
 19 H s       :     0.820752  s :     0.820752
 20 H s       :     0.772199  s :     0.772199


                     *******************************
                     * LOEWDIN POPULATION ANALYSIS *
                     *******************************

----------------------
LOEWDIN ATOMIC CHARGES
----------------------
   0 C :   -0.134686
   1 C :   -0.136509
   2 C :   -0.149841
   3 C :   -0.132279
   4 C :   -0.005018
   5 C :   -0.110380
   6 H :    0.146698
   7 H :    0.131886
   8 H :    0.132027
   9 H :    0.156897
  10 H :    0.133561
  11 Pd:   -0.316600
  12 O :   -0.209559
  13 O :   -0.169324
  14 O :   -0.034064
  15 C :    0.180236
  16 O :   -0.204585
  17 H :    0.353706
  18 C :    0.134719
  19 H :    0.106572
  20 H :    0.126543

-------------------------------
LOEWDIN REDUCED ORBITAL CHARGES
-------------------------------
  0 C s       :     2.877485  s :     2.877485
      pz      :     1.025981  p :     3.165520
      px      :     1.071812
      py      :     1.067728
      dz2     :     0.008201  d :     0.091681
      dxz     :     0.016076
      dyz     :     0.012423
      dx2y2   :     0.029767
      dxy     :     0.025212
  1 C s       :     2.889370  s :     2.889370
      pz      :     1.012882  p :     3.154999
      px      :     1.063346
      py      :     1.078771
      dz2     :     0.007674  d :     0.092139
      dxz     :     0.013458
      dyz     :     0.016233
      dx2y2   :     0.028351
      dxy     :     0.026423
  2 C s       :     2.888143  s :     2.888143
      pz      :     1.027392  p :     3.170705
      px      :     1.070881
      py      :     1.072431
      dz2     :     0.012251  d :     0.090992
      dxz     :     0.011958
      dyz     :     0.013997
      dx2y2   :     0.022809
      dxy     :     0.029977
  3 C s       :     2.889605  s :     2.889605
      pz      :     1.009846  p :     3.150744
      px      :     1.078772
      py      :     1.062126
      dz2     :     0.008347  d :     0.091930
      dxz     :     0.017032
      dyz     :     0.011740
      dx2y2   :     0.030263
      dxy     :     0.024548
  4 C s       :     2.868761  s :     2.868761
      pz      :     0.950424  p :     3.033207
      px      :     1.037088
      py      :     1.045695
      dz2     :     0.011347  d :     0.103049
      dxz     :     0.017787
      dyz     :     0.016813
      dx2y2   :     0.032448
      dxy     :     0.024655
  5 C s       :     2.877224  s :     2.877224
      pz      :     1.009765  p :     3.141727
      px      :     1.064668
      py      :     1.067294
      dz2     :     0.007447  d :     0.091429
      dxz     :     0.012639
      dyz     :     0.015041
      dx2y2   :     0.027727
      dxy     :     0.028575
  6 H s       :     0.853302  s :     0.853302
  7 H s       :     0.868114  s :     0.868114
  8 H s       :     0.867973  s :     0.867973
  9 H s       :     0.843103  s :     0.843103
 10 H s       :     0.866439  s :     0.866439
 11 Pds       :     2.510983  s :     2.510983
      pz      :     2.094755  p :     6.620548
      px      :     2.295388
      py      :     2.230405
      dz2     :     1.973229  d :     9.179070
      dxz     :     1.988536
      dyz     :     1.985612
      dx2y2   :     1.970468
      dxy     :     1.261223
      f0      :     0.000420  f :     0.006000
      f+1     :     0.000684
      f-1     :     0.000535
      f+2     :     0.000116
      f-2     :     0.000806
      f+3     :     0.001232
      f-3     :     0.002208
 12 O s       :     3.487437  s :     3.487437
      pz      :     1.519365  p :     4.667537
      px      :     1.670006
      py      :     1.478166
      dz2     :     0.006657  d :     0.054585
      dxz     :     0.001814
      dyz     :     0.013658
      dx2y2   :     0.018937
      dxy     :     0.013519
 13 O s       :     3.464490  s :     3.464490
      pz      :     1.593847  p :     4.646080
      px      :     1.446583
      py      :     1.605649
      dz2     :     0.007207  d :     0.058754
      dxz     :     0.007971
      dyz     :     0.007155
      dx2y2   :     0.013201
      dxy     :     0.023221
 14 O s       :     3.422240  s :     3.422240
      pz      :     1.472115  p :     4.547300
      px      :     1.475070
      py      :     1.600115
      dz2     :     0.021455  d :     0.064525
      dxz     :     0.018668
      dyz     :     0.013364
      dx2y2   :     0.006181
      dxy     :     0.004857
 15 C s       :     2.857398  s :     2.857398
      pz      :     0.918092  p :     2.666699
      px      :     0.855848
      py      :     0.892760
      dz2     :     0.092415  d :     0.295667
      dxz     :     0.065585
      dyz     :     0.091983
      dx2y2   :     0.016279
      dxy     :     0.029405
 16 O s       :     3.470919  s :     3.470919
      pz      :     1.336468  p :     4.675334
      px      :     1.672772
      py      :     1.666094
      dz2     :     0.009267  d :     0.058332
      dxz     :     0.015913
      dyz     :     0.017463
      dx2y2   :     0.008229
      dxy     :     0.007460
 17 H s       :     0.646294  s :     0.646294
 18 C s       :     2.851317  s :     2.851317
      pz      :     0.746417  p :     2.707799
      px      :     0.999625
      py      :     0.961756
      dz2     :     0.020507  d :     0.306166
      dxz     :     0.019223
      dyz     :     0.059506
      dx2y2   :     0.100330
      dxy     :     0.106601
 19 H s       :     0.893428  s :     0.893428
 20 H s       :     0.873457  s :     0.873457


                      *****************************
                      * MAYER POPULATION ANALYSIS *
                      *****************************

  NA   - Mulliken gross atomic population
  ZA   - Total nuclear charge
  QA   - Mulliken gross atomic charge
  VA   - Mayer's total valence
  BVA  - Mayer's bonded valence
  FA   - Mayer's free valence

  ATOM       NA         ZA         QA         VA         BVA        FA
  0 C      6.2696     6.0000    -0.2696     3.8030     3.8030     0.0000
  1 C      6.2207     6.0000    -0.2207     3.8237     3.8237     0.0000
  2 C      6.2317     6.0000    -0.2317     3.8209     3.8209    -0.0000
  3 C      6.2219     6.0000    -0.2219     3.8123     3.8123    -0.0000
  4 C      6.0910     6.0000    -0.0910     3.8162     3.8162     0.0000
  5 C      6.2339     6.0000    -0.2339     3.7918     3.7918    -0.0000
  6 H      0.7772     1.0000     0.2228     0.9130     0.9130    -0.0000
  7 H      0.7907     1.0000     0.2093     0.9145     0.9145     0.0000
  8 H      0.7892     1.0000     0.2108     0.9146     0.9146    -0.0000
  9 H      0.7651     1.0000     0.2349     0.9103     0.9103    -0.0000
 10 H      0.7879     1.0000     0.2121     0.9136     0.9136    -0.0000
 11 Pd    17.6437    18.0000     0.3563     2.3971     2.3971     0.0000
 12 O      8.4686     8.0000    -0.4686     2.1461     2.1461    -0.0000
 13 O      8.4870     8.0000    -0.4870     2.1564     2.1564    -0.0000
 14 O      8.3710     8.0000    -0.3710     2.2772     2.2772    -0.0000
 15 C      5.6095     6.0000     0.3905     3.9060     3.9060    -0.0000
 16 O      8.4962     8.0000    -0.4962     2.0964     2.0964     0.0000
 17 H      0.5306     1.0000     0.4694     0.7593     0.7593    -0.0000
 18 C      5.6214     6.0000     0.3786     3.9532     3.9532    -0.0000
 19 H      0.8208     1.0000     0.1792     0.9172     0.9172    -0.0000
 20 H      0.7722     1.0000     0.2278     0.8978     0.8978    -0.0000

  Mayer bond orders larger than 0.100000
B(  0-C ,  1-C ) :   1.4191 B(  0-C ,  4-C ) :   1.3805 B(  0-C ,  6-H ) :   0.9124 
B(  1-C ,  2-C ) :   1.4329 B(  1-C ,  7-H ) :   0.9208 B(  2-C ,  3-C ) :   1.4207 
B(  2-C ,  8-H ) :   0.9221 B(  3-C ,  5-C ) :   1.4211 B(  3-C , 10-H ) :   0.9204 
B(  4-C ,  5-C ) :   1.3786 B(  4-C , 11-Pd) :   0.9384 B(  5-C ,  9-H ) :   0.9106 
B( 11-Pd, 12-O ) :   0.3438 B( 11-Pd, 13-O ) :   0.5467 B( 11-Pd, 14-O ) :   0.3541 
B( 12-O , 13-O ) :   0.1166 B( 12-O , 18-C ) :   1.6186 B( 13-O , 18-C ) :   1.4204 
B( 14-O , 15-C ) :   1.7824 B( 15-C , 16-O ) :   1.2077 B( 15-C , 20-H ) :   0.8720 
B( 16-O , 17-H ) :   0.7394 B( 18-C , 19-H ) :   0.8855 

-------
TIMINGS
-------

Total SCF time: 0 days 0 hours 0 min 20 sec 

Total time                  ....      20.566 sec
Sum of individual times     ....      20.201 sec  ( 98.2%)

Fock matrix formation       ....      19.013 sec  ( 92.4%)
  Split-RI-J                ....       1.572 sec  (  8.3% of F)
  Chain of spheres X        ....      16.213 sec  ( 85.3% of F)
  XC integration            ....       1.210 sec  (  6.4% of F)
    Basis function eval.    ....       0.525 sec  ( 43.4% of XC)
    Density eval.           ....       0.255 sec  ( 21.1% of XC)
    XC-Functional eval.     ....       0.123 sec  ( 10.2% of XC)
    XC-Potential eval.      ....       0.212 sec  ( 17.5% of XC)
Diagonalization             ....       0.082 sec  (  0.4%)
Density matrix formation    ....       0.005 sec  (  0.0%)
Population analysis         ....       0.039 sec  (  0.2%)
Initial guess               ....       0.012 sec  (  0.1%)
Orbital Transformation      ....       0.000 sec  (  0.0%)
Orbital Orthonormalization  ....       0.007 sec  (  0.0%)
DIIS solution               ....       0.050 sec  (  0.2%)
Grid generation             ....       1.000 sec  (  4.9%)

Maximum memory used throughout the entire SCF-calculation: 73.9 MB


-------------------------------------------------------------------------------
                          DFT DISPERSION CORRECTION                            
                                                                               
                              DFTD3 V3.1  Rev 1                                
                          USING Becke-Johnson damping                          
-------------------------------------------------------------------------------
The PBEh-3c composite method is recognized
Using three-body term ABC
Active option DFTDOPT                   ...         4   

molecular C6(AA) [au] = 6848.862910 


            DFT-D V3
 parameters
 s6 scaling factor         :     1.0000 
 a1 scaling factor         :     0.4860 
 s8 scaling factor         :     0.0000 
 a2 scaling factor         :     4.5000 
 Damping factor alpha9(ATM):    16.0000 
 ad hoc parameters k1-k3   :    16.0000     1.3333    -4.0000 

 Edisp/kcal,au: -8.037988034875  -0.012809347922 
 E6   /kcal   :  -8.079189944 
 E8   /kcal   :  -0.000000000 
 E6(ABC)      :   0.041201909 
 % E8         :   0.000000000 
 % E6(ABC)    :  -0.512589823 

-------------------------   ----------------
Dispersion correction           -0.012809348
-------------------------   ----------------

 ** NOTE ** -> element pd will be treated as ni
------------------   -----------------
gCP correction             0.047871900
------------------   -----------------

-------------------------   --------------------
FINAL SINGLE POINT ENERGY      -737.137386140381
-------------------------   --------------------

                                *** OPTIMIZATION RUN DONE ***

                            ***************************************
                            *     ORCA property calculations      *
                            ***************************************

                                    ---------------------
                                    Active property flags
                                    ---------------------
   (+) Dipole Moment


------------------------------------------------------------------------------
                       ORCA ELECTRIC PROPERTIES CALCULATION
------------------------------------------------------------------------------

Dipole Moment Calculation                       ... on
Quadrupole Moment Calculation                   ... off
Polarizability Calculation                      ... off
GBWName                                         ... reaction-0-prod-pbeh3c-orca_opt.gbw
Electron density                                ... reaction-0-prod-pbeh3c-orca_opt.scfp
The origin for moment calculation is the CENTER OF MASS  = ( 1.463127,  0.892970 -0.257288)

-------------
DIPOLE MOMENT
-------------
                                X             Y             Z
Electronic contribution:     53.01933      35.26574     -11.73936
Nuclear contribution   :    -54.78126     -33.91847      13.80693
                        -----------------------------------------
Total Dipole Moment    :     -1.76193       1.34727       2.06756
                        -----------------------------------------
Magnitude (a.u.)       :      3.03222
Magnitude (Debye)      :      7.70728



--------------------
Rotational spectrum 
--------------------
 
Rotational constants in cm-1:     0.030836     0.016460     0.012495 
Rotational constants in MHz :   924.430741   493.465839   374.593627 

 Dipole components along the rotational axes: 
x,y,z [a.u.] :    -0.867398     2.764353     0.894604 
x,y,z [Debye]:    -2.204750     7.026428     2.273903 

 

Timings for individual modules:

Sum of individual times         ...     1674.848 sec (=  27.914 min)
GTO integral calculation        ...       34.921 sec (=   0.582 min)   2.1 %
SCF iterations                  ...     1267.523 sec (=  21.125 min)  75.7 %
SCF Gradient evaluation         ...      368.356 sec (=   6.139 min)  22.0 %
Geometry relaxation             ...        4.048 sec (=   0.067 min)   0.2 %
                             ****ORCA TERMINATED NORMALLY****
TOTAL RUN TIME: 0 days 0 hours 28 minutes 14 seconds 680 msec
