
                                 *****************
                                 * O   R   C   A *
                                 *****************

                                            #,                                       
                                            ###                                      
                                            ####                                     
                                            #####                                    
                                            ######                                   
                                           ########,                                 
                                     ,,################,,,,,                         
                               ,,#################################,,                 
                          ,,##########################################,,             
                       ,#########################################, ''#####,          
                    ,#############################################,,   '####,        
                  ,##################################################,,,,####,       
                ,###########''''           ''''###############################       
              ,#####''   ,,,,##########,,,,          '''####'''          '####       
            ,##' ,,,,###########################,,,                        '##       
           ' ,,###''''                  '''############,,,                           
         ,,##''                                '''############,,,,        ,,,,,,###''
      ,#''                                            '''#######################'''  
     '                                                          ''''####''''         
             ,#######,   #######,   ,#######,      ##                                
            ,#'     '#,  ##    ##  ,#'     '#,    #''#        ######   ,####,        
            ##       ##  ##   ,#'  ##            #'  '#       #        #'  '#        
            ##       ##  #######   ##           ,######,      #####,   #    #        
            '#,     ,#'  ##    ##  '#,     ,#' ,#      #,         ##   #,  ,#        
             '#######'   ##     ##  '#######'  #'      '#     #####' # '####'        



                  #######################################################
                  #                        -***-                        #
                  #          Department of theory and spectroscopy      #
                  #    Directorship and core code : Frank Neese         #
                  #        Max Planck Institute fuer Kohlenforschung    #
                  #                Kaiser Wilhelm Platz 1               #
                  #                 D-45470 Muelheim/Ruhr               #
                  #                      Germany                        #
                  #                                                     #
                  #                  All rights reserved                #
                  #                        -***-                        #
                  #######################################################


                         Program Version 5.0.3 -  RELEASE  -


 With contributions from (in alphabetic order):
   Daniel Aravena         : Magnetic Suceptibility
   Michael Atanasov       : Ab Initio Ligand Field Theory (pilot matlab implementation)
   Alexander A. Auer      : GIAO ZORA, VPT2 properties, NMR spectrum
   Ute Becker             : Parallelization
   Giovanni Bistoni       : ED, misc. LED, open-shell LED, HFLD
   Martin Brehm           : Molecular dynamics
   Dmytro Bykov           : SCF Hessian
   Vijay G. Chilkuri      : MRCI spin determinant printing, contributions to CSF-ICE
   Dipayan Datta          : RHF DLPNO-CCSD density
   Achintya Kumar Dutta   : EOM-CC, STEOM-CC
   Dmitry Ganyushin       : Spin-Orbit,Spin-Spin,Magnetic field MRCI
   Miquel Garcia          : C-PCM and meta-GGA Hessian, CC/C-PCM, Gaussian charge scheme
   Yang Guo               : DLPNO-NEVPT2, F12-NEVPT2, CIM, IAO-localization
   Andreas Hansen         : Spin unrestricted coupled pair/coupled cluster methods
   Benjamin Helmich-Paris : MC-RPA, TRAH-SCF, COSX integrals
   Lee Huntington         : MR-EOM, pCC
   Robert Izsak           : Overlap fitted RIJCOSX, COSX-SCS-MP3, EOM
   Marcus Kettner         : VPT2
   Christian Kollmar      : KDIIS, OOCD, Brueckner-CCSD(T), CCSD density, CASPT2, CASPT2-K
   Simone Kossmann        : Meta GGA functionals, TD-DFT gradient, OOMP2, MP2 Hessian
   Martin Krupicka        : Initial AUTO-CI
   Lucas Lang             : DCDCAS
   Marvin Lechner         : AUTO-CI (C++ implementation), FIC-MRCC
   Dagmar Lenk            : GEPOL surface, SMD
   Dimitrios Liakos       : Extrapolation schemes; Compound Job, initial MDCI parallelization
   Dimitrios Manganas     : Further ROCIS development; embedding schemes
   Dimitrios Pantazis     : SARC Basis sets
   Anastasios Papadopoulos: AUTO-CI, single reference methods and gradients
   Taras Petrenko         : DFT Hessian,TD-DFT gradient, ASA, ECA, R-Raman, ABS, FL, XAS/XES, NRVS
   Peter Pinski           : DLPNO-MP2, DLPNO-MP2 Gradient
   Christoph Reimann      : Effective Core Potentials
   Marius Retegan         : Local ZFS, SOC
   Christoph Riplinger    : Optimizer, TS searches, QM/MM, DLPNO-CCSD(T), (RO)-DLPNO pert. Triples
   Tobias Risthaus        : Range-separated hybrids, TD-DFT gradient, RPA, STAB
   Michael Roemelt        : Original ROCIS implementation
   Masaaki Saitow         : Open-shell DLPNO-CCSD energy and density
   Barbara Sandhoefer     : DKH picture change effects
   Avijit Sen             : IP-ROCIS
   Kantharuban Sivalingam : CASSCF convergence, NEVPT2, FIC-MRCI
   Bernardo de Souza      : ESD, SOC TD-DFT
   Georgi Stoychev        : AutoAux, RI-MP2 NMR, DLPNO-MP2 response
   Willem Van den Heuvel  : Paramagnetic NMR
   Boris Wezisla          : Elementary symmetry handling
   Frank Wennmohs         : Technical directorship


 We gratefully acknowledge several colleagues who have allowed us to
 interface, adapt or use parts of their codes:
   Stefan Grimme, W. Hujo, H. Kruse, P. Pracht,  : VdW corrections, initial TS optimization,
                  C. Bannwarth, S. Ehlert          DFT functionals, gCP, sTDA/sTD-DF
   Ed Valeev, F. Pavosevic, A. Kumar             : LibInt (2-el integral package), F12 methods
   Garnet Chan, S. Sharma, J. Yang, R. Olivares  : DMRG
   Ulf Ekstrom                                   : XCFun DFT Library
   Mihaly Kallay                                 : mrcc  (arbitrary order and MRCC methods)
   Jiri Pittner, Ondrej Demel                    : Mk-CCSD
   Frank Weinhold                                : gennbo (NPA and NBO analysis)
   Christopher J. Cramer and Donald G. Truhlar   : smd solvation model
   Lars Goerigk                                  : TD-DFT with DH, B97 family of functionals
   V. Asgeirsson, H. Jonsson                     : NEB implementation
   FAccTs GmbH                                   : IRC, NEB, NEB-TS, DLPNO-Multilevel, CI-OPT
                                                   MM, QMMM, 2- and 3-layer-ONIOM, Crystal-QMMM,
                                                   LR-CPCM, SF, NACMEs, symmetry and pop. for TD-DFT,
                                                   nearIR, NL-DFT gradient (VV10), updates on ESD,
                                                   ML-optimized integration grids
   S Lehtola, MJT Oliveira, MAL Marques          : LibXC Library
   Liviu Ungur et al                             : ANISO software


 Your calculation uses the libint2 library for the computation of 2-el integrals
 For citations please refer to: http://libint.valeyev.net

 Your ORCA version has been built with support for libXC version: 5.1.0
 For citations please refer to: https://tddft.org/programs/libxc/

 This ORCA versions uses:
   CBLAS   interface :  Fast vector & matrix operations
   LAPACKE interface :  Fast linear algebra routines
   SCALAPACK package :  Parallel linear algebra routines
   Shared memory     :  Shared parallel matrices
   BLAS/LAPACK       :  OpenBLAS 0.3.15  USE64BITINT DYNAMIC_ARCH NO_AFFINITY SkylakeX SINGLE_THREADED
        Core in use  :  SkylakeX
   Copyright (c) 2011-2014, The OpenBLAS Project


Your calculation utilizes the geometrical counterpoise correction gCP
Please cite in your paper:
H.Kruse, S. Grimme J.Chem.Phys., 136, (2012), 154101 
   

Your calculation utilizes the atom-pairwise dispersion correction
with the Becke-Johnson damping scheme (D3BJ)
Cite in your paper:
S.Grimme, S.Ehrlich, L.Goerigk, J Comput Chem, (2011), 32, 1456–1465 
S.Grimme, J.Antony, S.Ehrlich and H.Krieg, J.Chem.Phys., 132, (2010), 154104 
   

Your calculation employs the composite approach PBEh-3c.
Please cite in your paper:
S. Grimme, J. G. Brandenburg, C. Bannwarth, A. Hansen J.Chem.Phys., 143, (2015), 054107 
   

================================================================================

cite the ECPs for Pt [Def2-ECP] as follows:
Ce-Yb(ecp-28): M. Dolg, H. Stoll, H.Preuss, J. Chem. Phys., 1989, 90, 1730-1734.
Y-Cd(ecp-28), Hf-Hg(ecp-46): D. Andrae,U. Haeussermann, M. Dolg, H. Stoll, H. Preuss, Theor. Chim. Acta, 1990, 77, 123-141.
In-Sb(ecp-28), Tl-Bi(ecp-46): B. Metz, H. Stoll, M. Dolg, J. Chem. Phys., 2000, 113, 2563-2569.
Te-Xe(ecp-28), Po-Rn(ecp-46): K. A. Peterson, D. Figgen, E. Goll, H. Stoll, M. Dolg, J. Chem. Phys., 2003, 119, 11113-11123.
Rb(ecp-28), Cs(ecp-46): T. Leininger, A. Nicklass, W. Kuechle, H. Stoll, M. Dolg, A. Bergner, Chem. Phys. Lett., 1996, 255, 274-280.
Sr(ecp-28), Ba(ecp-46): M. Kaupp, P. V. Schleyer, H. Stoll and H. Preuss, J. Chem. Phys., 1991, 94, 1360-1366.
La(ecp-46): M. Dolg, H. Stoll, A. Savin, H. Preuss, Theor. Chim. Acta, 1989, 75, 173-194.
Lu(ecp-28): X. Cao, M. Dolg, J. Chem. Phys., 2001, 115, 7348-7355.

ECP parameters for Pt [Def2-ECP] have been obtained from:
TURBOMOLE (7.0.2)

----- Orbital basis set information -----
Your calculation utilizes the basis: def2-mSVP

----- AuxJ basis set information -----
Your calculation utilizes the auxiliary basis: def2/J
   F. Weigend, Phys. Chem. Chem. Phys. 8, 1057 (2006).

================================================================================
                                        WARNINGS
                       Please study these warnings very carefully!
================================================================================


WARNING: No Hueckel Guess possible with ECP basis!
  ===> : Switching to HCORE guess!

INFO   : the flag for use of the SHARK integral package has been found!

================================================================================
                                       INPUT FILE
================================================================================
NAME = 5_3_orca.inp
|  1> ! EnGrad PBEh-3c
|  2> %output 
|  3> xyzfile=True 
|  4> end 
|  5> %scf 
|  6> maxiter 250 
|  7> end
|  8> %output
|  9> Print[P_Hirshfeld] = 1
| 10> end
| 11> % maxcore
| 12> 4000
| 13> *xyz -1 1
| 14> Pt  -1.00426409  -0.90768864   0.53770570 
| 15> Cl  -0.25402431  -0.54597837   2.69994352 
| 16> Cl  -2.64769590  -2.21285927   1.15081186 
| 17> Cl  -1.57372729  -1.08769933  -1.69117466 
| 18> C    1.09183463   0.83165294  -0.42811068 
| 19> H    1.45612873   1.82128070  -0.02405314 
| 20> H    1.15645463   0.12996542   0.07877646 
| 21> H    1.66987400   0.72671956  -1.40107394 
| 22> H    0.10003739   1.24406104  -0.92262258 
| 23> *
| 24> 
| 25>                          ****END OF INPUT****
================================================================================

                     *******************************
                     * Energy+Gradient Calculation *
                     *******************************

---------------------------------
CARTESIAN COORDINATES (ANGSTROEM)
---------------------------------
  Pt    -1.004264   -0.907689    0.537706
  Cl    -0.254024   -0.545978    2.699944
  Cl    -2.647696   -2.212859    1.150812
  Cl    -1.573727   -1.087699   -1.691175
  C      1.091835    0.831653   -0.428111
  H      1.456129    1.821281   -0.024053
  H      1.156455    0.129965    0.078776
  H      1.669874    0.726720   -1.401074
  H      0.100037    1.244061   -0.922623

----------------------------
CARTESIAN COORDINATES (A.U.)
----------------------------
  NO LB      ZA    FRAG     MASS         X           Y           Z
   0 Pt   18.0000*   0   195.090   -1.897784   -1.715283    1.016117
   1 Cl   17.0000    0    35.453   -0.480036   -1.031750    5.102154
   2 Cl   17.0000    0    35.453   -5.003420   -4.181698    2.174719
   3 Cl   17.0000    0    35.453   -2.973914   -2.055454   -3.195857
   4 C     6.0000    0    12.011    2.063268    1.571596   -0.809012
   5 H     1.0000    0     1.008    2.751685    3.441722   -0.045454
   6 H     1.0000    0     1.008    2.185383    0.245599    0.148866
   7 H     1.0000    0     1.008    3.155605    1.373301   -2.647646
   8 H     1.0000    0     1.008    0.189043    2.350935   -1.743504
* core charge reduced due to ECP

--------------------------------
INTERNAL COORDINATES (ANGSTROEM)
--------------------------------
 Pt     0   0   0     0.000000000000     0.00000000     0.00000000
 Cl     1   0   0     2.317103026876     0.00000000     0.00000000
 Cl     1   2   0     2.186375459743    94.29471135     0.00000000
 Cl     1   2   3     2.307509446105   173.43852707   173.38940554
 C      1   2   3     2.889937759845    89.02975151   179.10122213
 H      5   1   2     1.129307659714   129.92742506   317.38378676
 H      5   1   2     0.868029776460    51.12035660    54.36675207
 H      5   1   2     1.136572933347   126.82720373   145.39303966
 H      5   1   2     1.182490687261    75.00850485   231.36727024

---------------------------
INTERNAL COORDINATES (A.U.)
---------------------------
 Pt     0   0   0     0.000000000000     0.00000000     0.00000000
 Cl     1   0   0     4.378690144875     0.00000000     0.00000000
 Cl     1   2   0     4.131650844840    94.29471135     0.00000000
 Cl     1   2   3     4.360560904574   173.43852707   173.38940554
 C      1   2   3     5.461190910185    89.02975151   179.10122213
 H      5   1   2     2.134082197799   129.92742506   317.38378676
 H      5   1   2     1.640338553598    51.12035660    54.36675207
 H      5   1   2     2.147811575254   126.82720373   145.39303966
 H      5   1   2     2.234583554835    75.00850485   231.36727024

---------------------
BASIS SET INFORMATION
---------------------
There are 4 groups of distinct atoms

 Group   1 Type Pt  : 7s6p5d1f contracted to 6s3p2d1f pattern {211111/411/41/1}
 Group   2 Type Cl  : 10s7p1d contracted to 4s3p1d pattern {5311/511/1}
 Group   3 Type C   : 8s4p1d contracted to 4s2p1d pattern {5111/31/1}
 Group   4 Type H   : 4s contracted to 2s pattern {31}

Atom   0Pt   basis set group =>   1
Atom   1Cl   basis set group =>   2
Atom   2Cl   basis set group =>   2
Atom   3Cl   basis set group =>   2
Atom   4C    basis set group =>   3
Atom   5H    basis set group =>   4
Atom   6H    basis set group =>   4
Atom   7H    basis set group =>   4
Atom   8H    basis set group =>   4
---------------------------------
AUXILIARY/J BASIS SET INFORMATION
---------------------------------
There are 4 groups of distinct atoms

 Group   1 Type Pt  : 11s5p5d3f3g contracted to 8s5p5d2f3g pattern {41111111/11111/11111/21/111}
 Group   2 Type Cl  : 14s5p5d2f1g contracted to 8s4p3d1f1g pattern {71111111/2111/311/2/1}
 Group   3 Type C   : 12s5p4d2f1g contracted to 6s4p3d1f1g pattern {711111/2111/211/2/1}
 Group   4 Type H   : 5s2p1d contracted to 3s1p1d pattern {311/2/1}

Atom   0Pt   basis set group =>   1
Atom   1Cl   basis set group =>   2
Atom   2Cl   basis set group =>   2
Atom   3Cl   basis set group =>   2
Atom   4C    basis set group =>   3
Atom   5H    basis set group =>   4
Atom   6H    basis set group =>   4
Atom   7H    basis set group =>   4
Atom   8H    basis set group =>   4
-------------------------
ECP PARAMETER INFORMATION
-------------------------

 Group 1, Type Pt ECP Def2-ECP (replacing 60 core electrons, lmax=3)

Atom   0Pt   ECP group =>   1

------------------------------------------------------------------------------
                           ORCA GTO INTEGRAL CALCULATION
                           -- RI-GTO INTEGRALS CHOSEN --
------------------------------------------------------------------------------
------------------------------------------------------------------------------
                   ___                                                        
                  /   \      - P O W E R E D   B Y -                         
                 /     \                                                     
                 |  |  |   _    _      __       _____    __    __             
                 |  |  |  | |  | |    /  \     |  _  \  |  |  /  |          
                  \  \/   | |  | |   /    \    | | | |  |  | /  /          
                 / \  \   | |__| |  /  /\  \   | |_| |  |  |/  /          
                |  |  |   |  __  | /  /__\  \  |    /   |      \           
                |  |  |   | |  | | |   __   |  |    \   |  |\   \          
                \     /   | |  | | |  |  |  |  | |\  \  |  | \   \       
                 \___/    |_|  |_| |__|  |__|  |_| \__\ |__|  \__/        
                                                                              
                      - O R C A' S   B I G   F R I E N D -                    
                                      &                                       
                       - I N T E G R A L  F E E D E R -                       
                                                                              
 v1 FN, 2020, v2 2021                                                         
------------------------------------------------------------------------------


Reading SHARK input file 5_3_orca.SHARKINP.tmp ... ok
----------------------
SHARK INTEGRAL PACKAGE
----------------------

Number of atoms                             ...      9
Number of basis functions                   ...    109
Number of shells                            ...     51
Maximum angular momentum                    ...      3
Integral batch strategy                     ... SHARK/LIBINT Hybrid
RI-J (if used) integral strategy            ... SPLIT-RIJ (Revised 2003 algorithm where possible)
Printlevel                                  ...      1
Contraction scheme used                     ... SEGMENTED contraction
Coulomb Range Separation                    ... NOT USED
Exchange Range Separation                   ... NOT USED
Finite Nucleus Model                        ... NOT USED
Auxiliary Coulomb fitting basis             ... AVAILABLE
   # of basis functions in Aux-J            ...    335
   # of shells in Aux-J                     ...    109
   Maximum angular momentum in Aux-J        ...      4
Auxiliary J/K fitting basis                 ... NOT available
Auxiliary Correlation fitting basis         ... NOT available
Auxiliary 'external' fitting basis          ... NOT available
Integral threshold                          ...     2.500000e-11
Primitive cut-off                           ...     2.500000e-12
Primitive pair pre-selection threshold      ...     2.500000e-12

Calculating pre-screening integrals         ... done (  0.1 sec) Dimension = 51
Organizing shell pair data                  ... done (  0.0 sec)
Shell pair information
Total number of shell pairs                 ...      1326
Shell pairs after pre-screening             ...      1174
Total number of primitive shell pairs       ...      5360
Primitive shell pairs kept                  ...      3402
          la=0 lb=0:    390 shell pairs
          la=1 lb=0:    366 shell pairs
          la=1 lb=1:     99 shell pairs
          la=2 lb=0:    167 shell pairs
          la=2 lb=1:     80 shell pairs
          la=2 lb=2:     21 shell pairs
          la=3 lb=0:     30 shell pairs
          la=3 lb=1:     14 shell pairs
          la=3 lb=2:      6 shell pairs
          la=3 lb=3:      1 shell pairs

Calculating one electron integrals          ... done (  0.0 sec)
Calculating ECP integrals                   ... done (  0.1 sec)
Calculating RI/J V-Matrix + Cholesky decomp.... done (  0.0 sec)
Calculating Nuclear repulsion               ... done (  0.0 sec) ENN=    453.624325531871 Eh

SHARK setup successfully completed in   0.3 seconds

Maximum memory used throughout the entire GTOINT-calculation: 18.7 MB
-------------------------------------------------------------------------------
                                 ORCA SCF
-------------------------------------------------------------------------------

------------
SCF SETTINGS
------------
Hamiltonian:
 Density Functional     Method          .... DFT(GTOs)
 Exchange Functional    Exchange        .... PBE
   PBE kappa parameter   XKappa         ....  1.024500
   PBE mue parameter    XMuePBE         ....  0.123457
 Correlation Functional Correlation     .... PBE
   PBE beta parameter  CBetaPBE         ....  0.030000
 LDA part of GGA corr.  LDAOpt          .... PW91-LDA
 Gradients option       PostSCFGGA      .... off
 Hybrid DFT is turned on
   Fraction HF Exchange ScalHFX         ....  0.420000
   Scaling of DF-GGA-X  ScalDFX         ....  0.580000
   Scaling of DF-GGA-C  ScalDFC         ....  1.000000
   Scaling of DF-LDA-C  ScalLDAC        ....  1.000000
   Perturbative correction              ....  0.000000
   Density functional embedding theory  .... OFF
 RI-approximation to the Coulomb term is turned on
   Number of AuxJ basis functions       .... 335
   RIJ-ON(X) (HFX calculated with O(N)) .... on
   Number of AuxJ basis functions       .... 335
   RIJ-COSX (HFX calculated with COS-X)).... on


General Settings:
 Integral files         IntName         .... 5_3_orca
 Hartree-Fock type      HFTyp           .... RHF
 Total Charge           Charge          ....   -1
 Multiplicity           Mult            ....    1
 Number of Electrons    NEL             ....   80
 Basis Dimension        Dim             ....  109
 Nuclear Repulsion      ENuc            ....    453.6243255319 Eh

Convergence Acceleration:
 DIIS                   CNVDIIS         .... on
   Start iteration      DIISMaxIt       ....    12
   Startup error        DIISStart       ....  0.200000
   # of expansion vecs  DIISMaxEq       ....     5
   Bias factor          DIISBfac        ....   1.050
   Max. coefficient     DIISMaxC        ....  10.000
 Trust-Rad. Augm. Hess. CNVTRAH         .... auto
   Auto Start mean grad. ratio tolernc. ....  1.125000
   Auto Start start iteration           ....    20
   Auto Start num. interpolation iter.  ....    10
   Max. Number of Micro iterations      ....    16
   Max. Number of Macro iterations      .... Maxiter - #DIIS iter
   Number of Davidson start vectors     ....     2
   Converg. threshold I  (grad. norm)   ....   1.000e-05
   Converg. threshold II (energy diff.) ....   1.000e-08
   Grad. Scal. Fac. for Micro threshold ....   0.100
   Minimum threshold for Micro iter.    ....   0.010
   NR start threshold (gradient norm)   ....   0.001
   Initial trust radius                 ....   0.400
   Minimum AH scaling param. (alpha)    ....   1.000
   Maximum AH scaling param. (alpha)    .... 1000.000
   Orbital update algorithm             .... Taylor
   White noise on init. David. guess    .... on
   Maximum white noise                  ....   0.010
   Quad. conv. algorithm                .... NR
   COSX micro iterations for RIJONX calc.... off
 SOSCF                  CNVSOSCF        .... off
 Level Shifting         CNVShift        .... on
   Level shift para.    LevelShift      ....    0.2500
   Turn off err/grad.   ShiftErr        ....    0.0010
 Zerner damping         CNVZerner       .... off
 Static damping         CNVDamp         .... on
   Fraction old density DampFac         ....    0.7000
   Max. Damping (<1)    DampMax         ....    0.9800
   Min. Damping (>=0)   DampMin         ....    0.0000
   Turn off err/grad.   DampErr         ....    0.1000
 Fernandez-Rico         CNVRico         .... off

SCF Procedure:
 Maximum # iterations   MaxIter         ....   250
 SCF integral mode      SCFMode         .... Direct
   Integral package                     .... SHARK and LIBINT hybrid scheme
 Reset frequency        DirectResetFreq ....    20
 Integral Threshold     Thresh          ....  2.500e-11 Eh
 Primitive CutOff       TCut            ....  2.500e-12 Eh

Convergence Tolerance:
 Convergence Check Mode ConvCheckMode   .... Total+1el-Energy
 Convergence forced     ConvForced      .... 0
 Energy Change          TolE            ....  1.000e-08 Eh
 1-El. energy change                    ....  1.000e-05 Eh
 DIIS Error             TolErr          ....  5.000e-07


Diagonalization of the overlap matrix:
Smallest eigenvalue                        ... 9.436e-03
Time for diagonalization                   ...    0.002 sec
Threshold for overlap eigenvalues          ... 1.000e-08
Number of eigenvalues below threshold      ... 0
Time for construction of square roots      ...    0.000 sec
Total time needed                          ...    0.002 sec

--------------------
INITIAL GUESS: HCORE
--------------------
                      -----------------
                      INTIAL GUESS DONE 
                      -----------------
-------------------
DFT GRID GENERATION
-------------------

General Integration Accuracy     IntAcc      ... 4.159
Radial Grid Type                 RadialGrid  ... OptM3 with GC (2021)
Angular Grid (max. ang.)         AngularGrid ... 3 (Lebedev-194)
Angular grid pruning method      GridPruning ... 4 (adaptive)
Weight generation scheme         WeightScheme... Becke
Basis function cutoff            BFCut       ... 1.0000e-11
Integration weight cutoff        WCut        ... 1.0000e-14
Angular grids for H and He will be reduced by one unit
Partially contracted basis set               ... off
Rotationally invariant grid construction     ... off

Total number of grid points                  ...    27620
Total number of batches                      ...      437
Average number of points per batch           ...       63
Average number of grid points per atom       ...     3069
Time for grid setup =    0.165 sec

--------------------
COSX GRID GENERATION
--------------------

GRIDX 1
-------
General Integration Accuracy     IntAcc      ... 3.816
Radial Grid Type                 RadialGrid  ... OptM3 with GC (2021)
Angular Grid (max. ang.)         AngularGrid ... 1 (Lebedev-50)
Angular grid pruning method      GridPruning ... 4 (adaptive)
Weight generation scheme         WeightScheme... Becke
Basis function cutoff            BFCut       ... 1.0000e-11
Integration weight cutoff        WCut        ... 1.0000e-14
Angular grids for H and He will be reduced by one unit
Partially contracted basis set               ... on
Rotationally invariant grid construction     ... off

Total number of grid points                  ...     6245
Total number of batches                      ...      102
Average number of points per batch           ...       61
Average number of grid points per atom       ...      694
UseSFitting                                  ... on

GRIDX 2
-------
General Integration Accuracy     IntAcc      ... 4.020
Radial Grid Type                 RadialGrid  ... OptM3 with GC (2021)
Angular Grid (max. ang.)         AngularGrid ... 2 (Lebedev-110)
Angular grid pruning method      GridPruning ... 4 (adaptive)
Weight generation scheme         WeightScheme... Becke
Basis function cutoff            BFCut       ... 1.0000e-11
Integration weight cutoff        WCut        ... 1.0000e-14
Angular grids for H and He will be reduced by one unit
Partially contracted basis set               ... on
Rotationally invariant grid construction     ... off

Total number of grid points                  ...    14724
Total number of batches                      ...      235
Average number of points per batch           ...       62
Average number of grid points per atom       ...     1636
UseSFitting                                  ... on

GRIDX 3
-------
General Integration Accuracy     IntAcc      ... 4.338
Radial Grid Type                 RadialGrid  ... OptM3 with GC (2021)
Angular Grid (max. ang.)         AngularGrid ... 3 (Lebedev-194)
Angular grid pruning method      GridPruning ... 4 (adaptive)
Weight generation scheme         WeightScheme... Becke
Basis function cutoff            BFCut       ... 1.0000e-11
Integration weight cutoff        WCut        ... 1.0000e-14
Angular grids for H and He will be reduced by one unit
Partially contracted basis set               ... on
Rotationally invariant grid construction     ... off

Total number of grid points                  ...    32808
Total number of batches                      ...      517
Average number of points per batch           ...       63
Average number of grid points per atom       ...     3645
UseSFitting                                  ... on

Time for X-Grid setup             =    0.402 sec

--------------
SCF ITERATIONS
--------------
ITER       Energy         Delta-E        Max-DP      RMS-DP      [F,P]     Damp
               ***  Starting incremental Fock matrix formation  ***
  0  -1484.7825131865   0.00000000000023.02166309  0.35013000  1.5465181 0.7000
  1  -1501.6891252957 -16.906612109230 6.90937560  0.12412736  1.2639896 0.7000
  2  -1512.8586628086 -11.169537512913 4.70984518  0.08493234  0.8124235 0.7000
  3  -1520.4461817777  -7.587518969092 3.28778245  0.05944200  0.5531461 0.7000
  4  -1525.8722771999  -5.426095422229 2.29984786  0.04157935  0.3808598 0.7000
  5  -1529.7329228317  -3.860645631766 1.61179982  0.02912209  0.2623583 0.7000
                               ***Turning on DIIS***
  6  -1532.4699296984  -2.737006866707 1.13059117  0.02041729  0.1800067 0.7000
  7  -1534.4040383190  -1.934108620614 0.79421770  0.01434782  0.1229710 0.7000
  8  -1535.7673975150  -1.363359195956 1.85819822  0.03358043  0.0849505 0.0000
  9  -1538.9806510885  -3.213253573517 0.00972213  0.00037568  0.0027415 0.0000
 10  -1538.9809572476  -0.000306159068 0.00531951  0.00018371  0.0013513 0.0000
 11  -1538.9810370651  -0.000079817512 0.00634783  0.00020354  0.0008597 0.0000
               *** Restarting incremental Fock matrix formation ***
                                   *** Resetting DIIS ***
 12  -1538.9824232358  -0.001386170702 0.00222321  0.00012742  0.0015279 0.0000
 13  -1538.9824498535  -0.000026617744 0.00379816  0.00009027  0.0006067 0.0000
 14  -1538.9824547821  -0.000004928580 0.00155029  0.00004467  0.0008496 0.0000
 15  -1538.9824598685  -0.000005086351 0.00130710  0.00002843  0.0002210 0.0000
 16  -1538.9824610768  -0.000001208378 0.00091594  0.00002388  0.0001420 0.0000
 17  -1538.9824616446  -0.000000567805 0.00072475  0.00001760  0.0000735 0.0000
 18  -1538.9824618341  -0.000000189465 0.00029253  0.00000743  0.0000280 0.0000
 19  -1538.9824618628  -0.000000028659 0.00007896  0.00000199  0.0000076 0.0000
 20  -1538.9824618620   0.000000000749 0.00001536  0.00000042  0.0000029 0.0000
 21  -1538.9824618625  -0.000000000524 0.00000722  0.00000022  0.0000020 0.0000
 22  -1538.9824618607   0.000000001834 0.00000492  0.00000014  0.0000011 0.0000
                 **** Energy Check signals convergence ****

               *****************************************************
               *                     SUCCESS                       *
               *           SCF CONVERGED AFTER  23 CYCLES          *
               *****************************************************

Old exchange energy                            =    -42.132619848 Eh
New exchange energy                            =    -42.132540880 Eh
Exchange energy change after final integration =      0.000078969 Eh
Total energy after final integration           =  -1538.982382892 Eh
Final COS-X integration done in                =     2.878 sec

----------------
TOTAL SCF ENERGY
----------------

Total Energy       :        -1538.98238289 Eh          -41877.83967 eV

Components:
Nuclear Repulsion  :          453.62432553 Eh           12343.74544 eV
Electronic Energy  :        -1992.60670842 Eh          -54221.58511 eV
One Electron Energy:        -3088.51564643 Eh          -84042.78339 eV
Two Electron Energy:         1095.90893801 Eh           29821.19828 eV
Max COSX asymmetry :            0.00001386 Eh               0.00038 eV

Virial components:
Potential Energy   :        -2997.35866612 Eh          -81562.27585 eV
Kinetic Energy     :         1458.37628323 Eh           39684.43618 eV
Virial Ratio       :            2.05527113


DFT components:
N(Alpha)           :       39.999959167734 electrons
N(Beta)            :       39.999959167734 electrons
N(Total)           :       79.999918335469 electrons
E(X)               :      -56.407078237630 Eh       
E(C)               :       -4.029734288673 Eh       
E(XC)              :      -60.436812526303 Eh       
DFET-embed. en.    :        0.000000000000 Eh       

---------------
SCF CONVERGENCE
---------------

  Last Energy change         ...    1.1732e-10  Tolerance :   1.0000e-08
  Last MAX-Density change    ...    0.0000e+00  Tolerance :   1.0000e-07
  Last RMS-Density change    ...    0.0000e+00  Tolerance :   5.0000e-09
  Last DIIS Error            ...    5.4682e-07  Tolerance :   5.0000e-07

             **** THE GBW FILE WAS UPDATED (5_3_orca.gbw) ****
             **** DENSITY 5_3_orca.scfp WAS UPDATED ****
             **** ENERGY FILE WAS UPDATED (5_3_orca.en.tmp) ****
             **** THE GBW FILE WAS UPDATED (5_3_orca.gbw) ****
             **** DENSITY 5_3_orca.scfp WAS UPDATED ****
----------------
ORBITAL ENERGIES
----------------

  NO   OCC          E(Eh)            E(eV) 
   0   2.0000    -102.115586     -2778.7064 
   1   2.0000    -102.088341     -2777.9650 
   2   2.0000    -102.088260     -2777.9628 
   3   2.0000     -10.316369      -280.7227 
   4   2.0000      -9.580497      -260.6986 
   5   2.0000      -9.552592      -259.9392 
   6   2.0000      -9.552502      -259.9368 
   7   2.0000      -7.268068      -197.7742 
   8   2.0000      -7.260442      -197.5667 
   9   2.0000      -7.260091      -197.5571 
  10   2.0000      -7.238445      -196.9681 
  11   2.0000      -7.238265      -196.9632 
  12   2.0000      -7.233647      -196.8375 
  13   2.0000      -7.233589      -196.8360 
  14   2.0000      -7.233432      -196.8317 
  15   2.0000      -7.233337      -196.8291 
  16   2.0000      -3.939381      -107.1960 
  17   2.0000      -2.158659       -58.7401 
  18   2.0000      -2.152963       -58.5851 
  19   2.0000      -2.116245       -57.5860 
  20   2.0000      -0.713020       -19.4023 
  21   2.0000      -0.694410       -18.8959 
  22   2.0000      -0.685811       -18.6619 
  23   2.0000      -0.676429       -18.4066 
  24   2.0000      -0.424348       -11.5471 
  25   2.0000      -0.327158        -8.9024 
  26   2.0000      -0.315531        -8.5860 
  27   2.0000      -0.287152        -7.8138 
  28   2.0000      -0.280880        -7.6431 
  29   2.0000      -0.273930        -7.4540 
  30   2.0000      -0.237511        -6.4630 
  31   2.0000      -0.229864        -6.2549 
  32   2.0000      -0.203330        -5.5329 
  33   2.0000      -0.180494        -4.9115 
  34   2.0000      -0.177874        -4.8402 
  35   2.0000      -0.156108        -4.2479 
  36   2.0000      -0.142241        -3.8706 
  37   2.0000      -0.133186        -3.6242 
  38   2.0000      -0.123589        -3.3630 
  39   2.0000      -0.113063        -3.0766 
  40   0.0000       0.078996         2.1496 
  41   0.0000       0.199565         5.4304 
  42   0.0000       0.203150         5.5280 
  43   0.0000       0.257306         7.0017 
  44   0.0000       0.270705         7.3662 
  45   0.0000       0.279106         7.5949 
  46   0.0000       0.305492         8.3129 
  47   0.0000       0.309819         8.4306 
  48   0.0000       0.368273        10.0212 
  49   0.0000       0.405780        11.0418 
  50   0.0000       0.544812        14.8251 
  51   0.0000       0.563864        15.3435 
  52   0.0000       0.569971        15.5097 
  53   0.0000       0.591052        16.0834 
  54   0.0000       0.661885        18.0108 
  55   0.0000       0.679122        18.4799 
  56   0.0000       0.730568        19.8798 
  57   0.0000       0.772583        21.0231 
  58   0.0000       0.781952        21.2780 
  59   0.0000       0.848428        23.0869 
  60   0.0000       0.871927        23.7263 
  61   0.0000       0.902198        24.5501 
  62   0.0000       0.936464        25.4825 
  63   0.0000       0.938180        25.5292 
  64   0.0000       0.962824        26.1998 
  65   0.0000       0.975361        26.5409 
  66   0.0000       1.000496        27.2249 
  67   0.0000       1.020699        27.7746 
  68   0.0000       1.024812        27.8865 
  69   0.0000       1.029736        28.0205 
  70   0.0000       1.034816        28.1588 
  71   0.0000       1.053159        28.6579 
  72   0.0000       1.058061        28.7913 
  73   0.0000       1.064666        28.9710 
  74   0.0000       1.073844        29.2208 
  75   0.0000       1.088112        29.6090 
  76   0.0000       1.092227        29.7210 
  77   0.0000       1.104256        30.0483 
  78   0.0000       1.110520        30.2188 
  79   0.0000       1.131244        30.7827 
  80   0.0000       1.164842        31.6970 
  81   0.0000       1.179412        32.0934 
  82   0.0000       1.206330        32.8259 
  83   0.0000       1.244143        33.8548 
  84   0.0000       1.254960        34.1492 
  85   0.0000       1.267497        34.4903 
  86   0.0000       1.294485        35.2247 
  87   0.0000       1.320885        35.9431 
  88   0.0000       1.386930        37.7403 
  89   0.0000       1.507064        41.0093 
  90   0.0000       1.546473        42.0817 
  91   0.0000       1.590468        43.2788 
  92   0.0000       1.615293        43.9544 
  93   0.0000       1.653236        44.9869 
  94   0.0000       1.708629        46.4941 
  95   0.0000       1.712265        46.5931 
  96   0.0000       1.731189        47.1080 
  97   0.0000       1.736020        47.2395 
  98   0.0000       1.808255        49.2051 
  99   0.0000       1.898465        51.6599 
 100   0.0000       2.019055        54.9413 
 101   0.0000       2.083286        56.6891 
 102   0.0000       2.309860        62.8545 
 103   0.0000       2.364578        64.3434 
 104   0.0000       2.499301        68.0094 
 105   0.0000       2.725198        74.1564 
 106   0.0000      13.882539       377.7631 
 107   0.0000      51.138373      1391.5459 
 108   0.0000     282.777911      7694.7781 

                    ********************************
                    * MULLIKEN POPULATION ANALYSIS *
                    ********************************

-----------------------
MULLIKEN ATOMIC CHARGES
-----------------------
   0 Pt:    0.099154
   1 Cl:   -0.437427
   2 Cl:   -0.289535
   3 Cl:   -0.438293
   4 C :   -0.946705
   5 H :    0.212366
   6 H :    0.325643
   7 H :    0.212462
   8 H :    0.262335
Sum of atomic charges:   -1.0000000

--------------------------------
MULLIKEN REDUCED ORBITAL CHARGES
--------------------------------
  0 Pts       :     2.671834  s :     2.671834
      pz      :     2.121579  p :     6.402648
      px      :     2.138724
      py      :     2.142344
      dz2     :     1.386415  d :     8.804342
      dxz     :     1.751886
      dyz     :     1.929310
      dx2y2   :     1.989688
      dxy     :     1.747042
      f0      :     0.006230  f :     0.022023
      f+1     :     0.005134
      f-1     :     0.002848
      f+2     :     0.001016
      f-2     :     0.002543
      f+3     :     0.001786
      f-3     :     0.002465
  1 Cls       :     5.941939  s :     5.941939
      pz      :     3.681670  p :    11.478038
      px      :     3.880547
      py      :     3.915820
      dz2     :     0.006909  d :     0.017450
      dxz     :     0.004694
      dyz     :     0.004300
      dx2y2   :     0.000778
      dxy     :     0.000769
  2 Cls       :     5.949285  s :     5.949285
      pz      :     3.913886  p :    11.309946
      px      :     3.641217
      py      :     3.754843
      dz2     :     0.003845  d :     0.030304
      dxz     :     0.005566
      dyz     :     0.003883
      dx2y2   :     0.007725
      dxy     :     0.009286
  3 Cls       :     5.940470  s :     5.940470
      pz      :     3.622505  p :    11.479676
      px      :     3.921374
      py      :     3.935798
      dz2     :     0.007054  d :     0.018147
      dxz     :     0.005170
      dyz     :     0.004699
      dx2y2   :     0.000580
      dxy     :     0.000645
  4 C s       :     3.452001  s :     3.452001
      pz      :     1.141126  p :     3.465690
      px      :     1.158979
      py      :     1.165585
      dz2     :     0.003086  d :     0.029013
      dxz     :     0.006254
      dyz     :     0.009463
      dx2y2   :     0.007079
      dxy     :     0.003132
  5 H s       :     0.787634  s :     0.787634
  6 H s       :     0.674357  s :     0.674357
  7 H s       :     0.787538  s :     0.787538
  8 H s       :     0.737665  s :     0.737665


                     *******************************
                     * LOEWDIN POPULATION ANALYSIS *
                     *******************************

----------------------
LOEWDIN ATOMIC CHARGES
----------------------
   0 Pt:   -0.899665
   1 Cl:   -0.139139
   2 Cl:    0.059898
   3 Cl:   -0.134682
   4 C :   -0.481134
   5 H :    0.129175
   6 H :    0.148497
   7 H :    0.130571
   8 H :    0.186479

-------------------------------
LOEWDIN REDUCED ORBITAL CHARGES
-------------------------------
  0 Pts       :     2.724572  s :     2.724572
      pz      :     2.335042  p :     6.804305
      px      :     2.245351
      py      :     2.223912
      dz2     :     1.563552  d :     9.332578
      dxz     :     1.877831
      dyz     :     2.023191
      dx2y2   :     2.038366
      dxy     :     1.829638
      f0      :     0.011207  f :     0.038210
      f+1     :     0.009170
      f-1     :     0.004846
      f+2     :     0.001747
      f-2     :     0.004153
      f+3     :     0.003018
      f-3     :     0.004068
  1 Cls       :     5.751673  s :     5.751673
      pz      :     3.654616  p :    11.367587
      px      :     3.840373
      py      :     3.872598
      dz2     :     0.007963  d :     0.019880
      dxz     :     0.005288
      dyz     :     0.004896
      dx2y2   :     0.000874
      dxy     :     0.000858
  2 Cls       :     5.719208  s :     5.719208
      pz      :     3.862079  p :    11.185914
      px      :     3.610010
      py      :     3.713825
      dz2     :     0.004392  d :     0.034980
      dxz     :     0.006615
      dyz     :     0.004635
      dx2y2   :     0.008829
      dxy     :     0.010510
  3 Cls       :     5.748420  s :     5.748420
      pz      :     3.601049  p :    11.365627
      px      :     3.875392
      py      :     3.889186
      dz2     :     0.007773  d :     0.020635
      dxz     :     0.006055
      dyz     :     0.005493
      dx2y2   :     0.000622
      dxy     :     0.000692
  4 C s       :     2.970524  s :     2.970524
      pz      :     1.148699  p :     3.463458
      px      :     1.166091
      py      :     1.148668
      dz2     :     0.005444  d :     0.047152
      dxz     :     0.010433
      dyz     :     0.014571
      dx2y2   :     0.011245
      dxy     :     0.005460
  5 H s       :     0.870825  s :     0.870825
  6 H s       :     0.851503  s :     0.851503
  7 H s       :     0.869429  s :     0.869429
  8 H s       :     0.813521  s :     0.813521


                      *****************************
                      * MAYER POPULATION ANALYSIS *
                      *****************************

  NA   - Mulliken gross atomic population
  ZA   - Total nuclear charge
  QA   - Mulliken gross atomic charge
  VA   - Mayer's total valence
  BVA  - Mayer's bonded valence
  FA   - Mayer's free valence

  ATOM       NA         ZA         QA         VA         BVA        FA
  0 Pt    17.9008    18.0000     0.0992     2.7857     2.7857     0.0000
  1 Cl    17.4374    17.0000    -0.4374     0.9560     0.9560    -0.0000
  2 Cl    17.2895    17.0000    -0.2895     1.1094     1.1094    -0.0000
  3 Cl    17.4383    17.0000    -0.4383     0.9502     0.9502     0.0000
  4 C      6.9467     6.0000    -0.9467     3.7071     3.7071    -0.0000
  5 H      0.7876     1.0000     0.2124     0.9116     0.9116     0.0000
  6 H      0.6744     1.0000     0.3256     0.8660     0.8660    -0.0000
  7 H      0.7875     1.0000     0.2125     0.9109     0.9109    -0.0000
  8 H      0.7377     1.0000     0.2623     0.9029     0.9029     0.0000

  Mayer bond orders larger than 0.100000
B(  0-Pt,  1-Cl) :   0.8080 B(  0-Pt,  2-Cl) :   1.0416 B(  0-Pt,  3-Cl) :   0.7936 
B(  1-Cl,  3-Cl) :   0.1106 B(  4-C ,  5-H ) :   0.9293 B(  4-C ,  6-H ) :   0.8432 
B(  4-C ,  7-H ) :   0.9311 B(  4-C ,  8-H ) :   0.8938 


------------------
HIRSHFELD ANALYSIS
------------------

Total integrated alpha density =     39.999959168
Total integrated beta density  =     39.999959168

  ATOM     CHARGE      SPIN    
   0 Pt  -0.010293    0.000000
   1 Cl  -0.385981    0.000000
   2 Cl  -0.245799    0.000000
   3 Cl  -0.380528    0.000000
   4 C   -0.109254    0.000000
   5 H    0.029554    0.000000
   6 H    0.019423    0.000000
   7 H    0.029680    0.000000
   8 H    0.053279    0.000000

  TOTAL  -0.999918    0.000000

-------
TIMINGS
-------

Total SCF time: 0 days 0 hours 0 min 31 sec 

Total time                  ....      31.477 sec
Sum of individual times     ....      31.348 sec  ( 99.6%)

Fock matrix formation       ....      30.611 sec  ( 97.2%)
  Split-RI-J                ....       2.583 sec  (  8.4% of F)
  Chain of spheres X        ....      24.077 sec  ( 78.7% of F)
  XC integration            ....       3.945 sec  ( 12.9% of F)
    Basis function eval.    ....       1.674 sec  ( 42.4% of XC)
    Density eval.           ....       0.682 sec  ( 17.3% of XC)
    XC-Functional eval.     ....       0.637 sec  ( 16.2% of XC)
    XC-Potential eval.      ....       0.761 sec  ( 19.3% of XC)
Diagonalization             ....       0.038 sec  (  0.1%)
Density matrix formation    ....       0.004 sec  (  0.0%)
Population analysis         ....       0.114 sec  (  0.4%)
Initial guess               ....       0.002 sec  (  0.0%)
Orbital Transformation      ....       0.000 sec  (  0.0%)
Orbital Orthonormalization  ....       0.000 sec  (  0.0%)
DIIS solution               ....       0.013 sec  (  0.0%)
Grid generation             ....       0.566 sec  (  1.8%)

Maximum memory used throughout the entire SCF-calculation: 76.3 MB


-------------------------------------------------------------------------------
                          DFT DISPERSION CORRECTION                            
                                                                               
                              DFTD3 V3.1  Rev 1                                
                          USING Becke-Johnson damping                          
-------------------------------------------------------------------------------
The PBEh-3c composite method is recognized
Using three-body term ABC
Active option DFTDOPT                   ...         4   

molecular C6(AA) [au] = 3398.240943 


            DFT-D V3
 parameters
 s6 scaling factor         :     1.0000 
 a1 scaling factor         :     0.4860 
 s8 scaling factor         :     0.0000 
 a2 scaling factor         :     4.5000 
 Damping factor alpha9(ATM):    16.0000 
 ad hoc parameters k1-k3   :    16.0000     1.3333    -4.0000 

 Edisp/kcal,au: -3.023799433115  -0.004818730610 
 E6   /kcal   :  -3.031133627 
 E8   /kcal   :  -0.000000000 
 E6(ABC)      :   0.007334194 
 % E8         :   0.000000000 
 % E6(ABC)    :  -0.242548951 

-------------------------   ----------------
Dispersion correction           -0.004818731
-------------------------   ----------------

 ** NOTE ** -> element pt will be treated as ni
NOTIFICATION: Different basis set in ORCA and otool_gcp:
ORCA: 109  gCP: 108 
If you are NOT using ECPs, check your basis set inputs!
------------------   -----------------
gCP correction             0.010177869
------------------   -----------------

-------------------------   --------------------
FINAL SINGLE POINT ENERGY     -1538.977023753603
-------------------------   --------------------

------------------------------------------------------------------------------
                         ORCA SCF GRADIENT CALCULATION
------------------------------------------------------------------------------

 ... reading COSX grid (gridx3)
Gradient of the Kohn-Sham DFT energy:
Kohn-Sham wavefunction type      ... RKS
Hartree-Fock exchange scaling    ...    0.420
Number of operators              ...    1
Number of atoms                  ...    9
Basis set dimensions             ...  109
Integral neglect threshold       ... 2.5e-11
Integral primitive cutoff        ... 2.5e-12
SHARK Integral package           ... ON

Nuc. rep. gradient       (SHARK) ... done (  0.0 sec)
HCore & Overlap gradient (SHARK) ... done (  0.1 sec)
ECP gradient             (SHARK) ... done (  0.3 sec)
RI-J gradient            (SHARK) ... done (  0.5 sec)
COSX-gradient                    ... done (  3.3 sec)
Exchange-correlation gradient    ... done
Dispersion correction            ... done
gCP correction                   ... done

------------------
CARTESIAN GRADIENT
------------------

   1   Pt  :   -0.006624460   -0.010664643    0.004490095
   2   Cl  :   -0.000823431   -0.000655913    0.001382649
   3   Cl  :    0.013950283    0.011710253   -0.006620522
   4   Cl  :    0.000153445    0.000508578    0.002056598
   5   C   :    0.031721583   -0.312044011    0.242037254
   6   H   :    0.000682057    0.030715057   -0.006803781
   7   H   :   -0.018368250    0.237412182   -0.177754599
   8   H   :    0.007424761    0.008283496   -0.027393322
   9   H   :   -0.026660787    0.034516288   -0.031390891

Difference to translation invariance:
           :    0.0014552005   -0.0002187125    0.0000034804

Difference to rotation invariance:
           :    0.0022831839   -0.0003400302    0.0038692678

Norm of the cartesian gradient     ...    0.5005708152
RMS gradient                       ...    0.0963348983
MAX gradient                       ...    0.3120440107

-------
TIMINGS
-------

Total SCF gradient time            ...        5.285 sec

One electron gradient       ....       0.356 sec  (  6.7%)
RI-J Coulomb gradient       ....       0.539 sec  ( 10.2%)
COSX gradient               ....       3.273 sec  ( 61.9%)
XC gradient                 ....       0.773 sec  ( 14.6%)

Maximum memory used throughout the entire SCFGRAD-calculation: 50.7 MB

                            ***************************************
                            *     ORCA property calculations      *
                            ***************************************

                                    ---------------------
                                    Active property flags
                                    ---------------------
   (+) Dipole Moment


------------------------------------------------------------------------------
                       ORCA ELECTRIC PROPERTIES CALCULATION
------------------------------------------------------------------------------

Dipole Moment Calculation                       ... on
Quadrupole Moment Calculation                   ... off
Polarizability Calculation                      ... off
GBWName                                         ... 5_3_orca.gbw
Electron density                                ... 5_3_orca.scfp
The origin for moment calculation is the CENTER OF MASS  = (-2.006186, -1.782696  1.035867)

-------------
DIPOLE MOMENT
-------------
                                X             Y             Z
Electronic contribution:     -0.37201      -2.44248       2.83845
Nuclear contribution   :      1.21460       3.22768      -3.30790
                        -----------------------------------------
Total Dipole Moment    :      0.84259       0.78520      -0.46945
                        -----------------------------------------
Magnitude (a.u.)       :      1.24374
Magnitude (Debye)      :      3.16133



--------------------
Rotational spectrum 
--------------------
 
Rotational constants in cm-1:     0.054552     0.044151     0.024526 
Rotational constants in MHz :  1635.436451  1323.606945   735.269799 

 Dipole components along the rotational axes: 
x,y,z [a.u.] :    -0.179127    -1.229077    -0.064587 
x,y,z [Debye]:    -0.455304    -3.124065    -0.164168 

 

Timings for individual modules:

Sum of individual times         ...       37.167 sec (=   0.619 min)
GTO integral calculation        ...        0.362 sec (=   0.006 min)   1.0 %
SCF iterations                  ...       31.490 sec (=   0.525 min)  84.7 %
SCF Gradient evaluation         ...        5.316 sec (=   0.089 min)  14.3 %
                             ****ORCA TERMINATED NORMALLY****
TOTAL RUN TIME: 0 days 0 hours 0 minutes 37 seconds 560 msec
