
                                 *****************
                                 * O   R   C   A *
                                 *****************

                                            #,                                       
                                            ###                                      
                                            ####                                     
                                            #####                                    
                                            ######                                   
                                           ########,                                 
                                     ,,################,,,,,                         
                               ,,#################################,,                 
                          ,,##########################################,,             
                       ,#########################################, ''#####,          
                    ,#############################################,,   '####,        
                  ,##################################################,,,,####,       
                ,###########''''           ''''###############################       
              ,#####''   ,,,,##########,,,,          '''####'''          '####       
            ,##' ,,,,###########################,,,                        '##       
           ' ,,###''''                  '''############,,,                           
         ,,##''                                '''############,,,,        ,,,,,,###''
      ,#''                                            '''#######################'''  
     '                                                          ''''####''''         
             ,#######,   #######,   ,#######,      ##                                
            ,#'     '#,  ##    ##  ,#'     '#,    #''#        ######   ,####,        
            ##       ##  ##   ,#'  ##            #'  '#       #        #'  '#        
            ##       ##  #######   ##           ,######,      #####,   #    #        
            '#,     ,#'  ##    ##  '#,     ,#' ,#      #,         ##   #,  ,#        
             '#######'   ##     ##  '#######'  #'      '#     #####' # '####'        



                  #######################################################
                  #                        -***-                        #
                  #          Department of theory and spectroscopy      #
                  #    Directorship and core code : Frank Neese         #
                  #        Max Planck Institute fuer Kohlenforschung    #
                  #                Kaiser Wilhelm Platz 1               #
                  #                 D-45470 Muelheim/Ruhr               #
                  #                      Germany                        #
                  #                                                     #
                  #                  All rights reserved                #
                  #                        -***-                        #
                  #######################################################


                         Program Version 5.0.3 -  RELEASE  -


 With contributions from (in alphabetic order):
   Daniel Aravena         : Magnetic Suceptibility
   Michael Atanasov       : Ab Initio Ligand Field Theory (pilot matlab implementation)
   Alexander A. Auer      : GIAO ZORA, VPT2 properties, NMR spectrum
   Ute Becker             : Parallelization
   Giovanni Bistoni       : ED, misc. LED, open-shell LED, HFLD
   Martin Brehm           : Molecular dynamics
   Dmytro Bykov           : SCF Hessian
   Vijay G. Chilkuri      : MRCI spin determinant printing, contributions to CSF-ICE
   Dipayan Datta          : RHF DLPNO-CCSD density
   Achintya Kumar Dutta   : EOM-CC, STEOM-CC
   Dmitry Ganyushin       : Spin-Orbit,Spin-Spin,Magnetic field MRCI
   Miquel Garcia          : C-PCM and meta-GGA Hessian, CC/C-PCM, Gaussian charge scheme
   Yang Guo               : DLPNO-NEVPT2, F12-NEVPT2, CIM, IAO-localization
   Andreas Hansen         : Spin unrestricted coupled pair/coupled cluster methods
   Benjamin Helmich-Paris : MC-RPA, TRAH-SCF, COSX integrals
   Lee Huntington         : MR-EOM, pCC
   Robert Izsak           : Overlap fitted RIJCOSX, COSX-SCS-MP3, EOM
   Marcus Kettner         : VPT2
   Christian Kollmar      : KDIIS, OOCD, Brueckner-CCSD(T), CCSD density, CASPT2, CASPT2-K
   Simone Kossmann        : Meta GGA functionals, TD-DFT gradient, OOMP2, MP2 Hessian
   Martin Krupicka        : Initial AUTO-CI
   Lucas Lang             : DCDCAS
   Marvin Lechner         : AUTO-CI (C++ implementation), FIC-MRCC
   Dagmar Lenk            : GEPOL surface, SMD
   Dimitrios Liakos       : Extrapolation schemes; Compound Job, initial MDCI parallelization
   Dimitrios Manganas     : Further ROCIS development; embedding schemes
   Dimitrios Pantazis     : SARC Basis sets
   Anastasios Papadopoulos: AUTO-CI, single reference methods and gradients
   Taras Petrenko         : DFT Hessian,TD-DFT gradient, ASA, ECA, R-Raman, ABS, FL, XAS/XES, NRVS
   Peter Pinski           : DLPNO-MP2, DLPNO-MP2 Gradient
   Christoph Reimann      : Effective Core Potentials
   Marius Retegan         : Local ZFS, SOC
   Christoph Riplinger    : Optimizer, TS searches, QM/MM, DLPNO-CCSD(T), (RO)-DLPNO pert. Triples
   Tobias Risthaus        : Range-separated hybrids, TD-DFT gradient, RPA, STAB
   Michael Roemelt        : Original ROCIS implementation
   Masaaki Saitow         : Open-shell DLPNO-CCSD energy and density
   Barbara Sandhoefer     : DKH picture change effects
   Avijit Sen             : IP-ROCIS
   Kantharuban Sivalingam : CASSCF convergence, NEVPT2, FIC-MRCI
   Bernardo de Souza      : ESD, SOC TD-DFT
   Georgi Stoychev        : AutoAux, RI-MP2 NMR, DLPNO-MP2 response
   Willem Van den Heuvel  : Paramagnetic NMR
   Boris Wezisla          : Elementary symmetry handling
   Frank Wennmohs         : Technical directorship


 We gratefully acknowledge several colleagues who have allowed us to
 interface, adapt or use parts of their codes:
   Stefan Grimme, W. Hujo, H. Kruse, P. Pracht,  : VdW corrections, initial TS optimization,
                  C. Bannwarth, S. Ehlert          DFT functionals, gCP, sTDA/sTD-DF
   Ed Valeev, F. Pavosevic, A. Kumar             : LibInt (2-el integral package), F12 methods
   Garnet Chan, S. Sharma, J. Yang, R. Olivares  : DMRG
   Ulf Ekstrom                                   : XCFun DFT Library
   Mihaly Kallay                                 : mrcc  (arbitrary order and MRCC methods)
   Jiri Pittner, Ondrej Demel                    : Mk-CCSD
   Frank Weinhold                                : gennbo (NPA and NBO analysis)
   Christopher J. Cramer and Donald G. Truhlar   : smd solvation model
   Lars Goerigk                                  : TD-DFT with DH, B97 family of functionals
   V. Asgeirsson, H. Jonsson                     : NEB implementation
   FAccTs GmbH                                   : IRC, NEB, NEB-TS, DLPNO-Multilevel, CI-OPT
                                                   MM, QMMM, 2- and 3-layer-ONIOM, Crystal-QMMM,
                                                   LR-CPCM, SF, NACMEs, symmetry and pop. for TD-DFT,
                                                   nearIR, NL-DFT gradient (VV10), updates on ESD,
                                                   ML-optimized integration grids
   S Lehtola, MJT Oliveira, MAL Marques          : LibXC Library
   Liviu Ungur et al                             : ANISO software


 Your calculation uses the libint2 library for the computation of 2-el integrals
 For citations please refer to: http://libint.valeyev.net

 Your ORCA version has been built with support for libXC version: 5.1.0
 For citations please refer to: https://tddft.org/programs/libxc/

 This ORCA versions uses:
   CBLAS   interface :  Fast vector & matrix operations
   LAPACKE interface :  Fast linear algebra routines
   SCALAPACK package :  Parallel linear algebra routines
   Shared memory     :  Shared parallel matrices
   BLAS/LAPACK       :  OpenBLAS 0.3.15  USE64BITINT DYNAMIC_ARCH NO_AFFINITY SkylakeX SINGLE_THREADED
        Core in use  :  SkylakeX
   Copyright (c) 2011-2014, The OpenBLAS Project


Your calculation utilizes the geometrical counterpoise correction gCP
Please cite in your paper:
H.Kruse, S. Grimme J.Chem.Phys., 136, (2012), 154101 
   

Your calculation utilizes the atom-pairwise dispersion correction
with the Becke-Johnson damping scheme (D3BJ)
Cite in your paper:
S.Grimme, S.Ehrlich, L.Goerigk, J Comput Chem, (2011), 32, 1456–1465 
S.Grimme, J.Antony, S.Ehrlich and H.Krieg, J.Chem.Phys., 132, (2010), 154104 
   

Your calculation employs the composite approach PBEh-3c.
Please cite in your paper:
S. Grimme, J. G. Brandenburg, C. Bannwarth, A. Hansen J.Chem.Phys., 143, (2015), 054107 
   

================================================================================

cite the ECPs for Pd [Def2-ECP] as follows:
Ce-Yb(ecp-28): M. Dolg, H. Stoll, H.Preuss, J. Chem. Phys., 1989, 90, 1730-1734.
Y-Cd(ecp-28), Hf-Hg(ecp-46): D. Andrae,U. Haeussermann, M. Dolg, H. Stoll, H. Preuss, Theor. Chim. Acta, 1990, 77, 123-141.
In-Sb(ecp-28), Tl-Bi(ecp-46): B. Metz, H. Stoll, M. Dolg, J. Chem. Phys., 2000, 113, 2563-2569.
Te-Xe(ecp-28), Po-Rn(ecp-46): K. A. Peterson, D. Figgen, E. Goll, H. Stoll, M. Dolg, J. Chem. Phys., 2003, 119, 11113-11123.
Rb(ecp-28), Cs(ecp-46): T. Leininger, A. Nicklass, W. Kuechle, H. Stoll, M. Dolg, A. Bergner, Chem. Phys. Lett., 1996, 255, 274-280.
Sr(ecp-28), Ba(ecp-46): M. Kaupp, P. V. Schleyer, H. Stoll and H. Preuss, J. Chem. Phys., 1991, 94, 1360-1366.
La(ecp-46): M. Dolg, H. Stoll, A. Savin, H. Preuss, Theor. Chim. Acta, 1989, 75, 173-194.
Lu(ecp-28): X. Cao, M. Dolg, J. Chem. Phys., 2001, 115, 7348-7355.

ECP parameters for Pd [Def2-ECP] have been obtained from:
TURBOMOLE (7.0.2)

----- Orbital basis set information -----
Your calculation utilizes the basis: def2-mSVP

----- AuxJ basis set information -----
Your calculation utilizes the auxiliary basis: def2/J
   F. Weigend, Phys. Chem. Chem. Phys. 8, 1057 (2006).

================================================================================
                                        WARNINGS
                       Please study these warnings very carefully!
================================================================================


INFO   : the flag for use of the SHARK integral package has been found!

================================================================================
                                       INPUT FILE
================================================================================
NAME = 1_1_orca.inp
|  1> ! EnGrad PBEh-3c
|  2> %output 
|  3> xyzfile=True 
|  4> end 
|  5> %scf 
|  6> maxiter 250 
|  7> end
|  8> %output
|  9> Print[P_Hirshfeld] = 1
| 10> end
| 11> % maxcore
| 12> 4000
| 13> *xyz -1 1
| 14> C   -2.72198520  -0.43279908   0.74446743 
| 15> C   -2.08306104   0.87965602   1.18224821 
| 16> C   -3.98539967  -0.60277358   1.38836334 
| 17> C   -4.66568286   0.33283159   2.13940219 
| 18> C   -4.03202439   1.51776761   2.48783207 
| 19> C   -2.74252722   1.74921869   2.07437203 
| 20> H   -2.42387648  -1.10522059  -0.01369064 
| 21> H   -4.47859966  -1.54161898   1.13718406 
| 22> H   -2.23081031   2.65679036   2.39548689 
| 23> H   -5.67270370   0.13626745   2.46856822 
| 24> H   -4.54997632   2.25507136   3.08179753 
| 25> C   -0.78106978   1.26859014   0.58367997 
| 26> C    0.39004509   0.54922758   1.28201410 
| 27> H   -0.61461768   2.35426116   0.64427931 
| 28> H   -0.79805821   1.05720170  -0.48003100 
| 29> C    1.67401154   0.60988241   0.51341948 
| 30> H    0.10795888  -0.48954362   1.46386105 
| 31> H    0.51933117   0.99234271   2.27855982 
| 32> C    1.88421847  -0.18236398  -0.62857520 
| 33> C    3.06864428  -0.01506387  -1.34880312 
| 34> C    3.99377802   0.95567160  -0.98539274 
| 35> C    2.65098609   1.51328397   0.90410849 
| 36> C    3.79356605   1.72131144   0.14725039 
| 37> H    3.25892917  -0.62721398  -2.21864123 
| 38> H    4.88619097   1.09335701  -1.58888656 
| 39> H    2.49562034   2.09176115   1.81149163 
| 40> H    4.48860614   2.50546683   0.41522453 
| 41> Pd   0.54591545  -1.56666021  -1.27581071 
| 42> Br  -1.14246895  -3.45694403  -1.76334597 
| 43> P    1.11377878  -2.93197960   0.39622626 
| 44> H    0.13199294  -3.29581653   1.32476632 
| 45> C    0.78771765  -0.79734685  -3.99289976 
| 46> O    1.75460372  -1.60225967  -4.11084532 
| 47> O    0.04046866  -0.62021975  -2.99307647 
| 48> O    0.49128835   0.00989940  -5.03741396 
| 49> H    2.15463016  -2.62064079   1.27326450 
| 50> H    1.54890917  -4.20853668   0.01190716 
| 51> H    1.14486778  -0.15199742  -5.71031148 
| 52> *
| 53> 
| 54>                          ****END OF INPUT****
================================================================================

                     *******************************
                     * Energy+Gradient Calculation *
                     *******************************

---------------------------------
CARTESIAN COORDINATES (ANGSTROEM)
---------------------------------
  C     -2.721985   -0.432799    0.744467
  C     -2.083061    0.879656    1.182248
  C     -3.985400   -0.602774    1.388363
  C     -4.665683    0.332832    2.139402
  C     -4.032024    1.517768    2.487832
  C     -2.742527    1.749219    2.074372
  H     -2.423876   -1.105221   -0.013691
  H     -4.478600   -1.541619    1.137184
  H     -2.230810    2.656790    2.395487
  H     -5.672704    0.136267    2.468568
  H     -4.549976    2.255071    3.081798
  C     -0.781070    1.268590    0.583680
  C      0.390045    0.549228    1.282014
  H     -0.614618    2.354261    0.644279
  H     -0.798058    1.057202   -0.480031
  C      1.674012    0.609882    0.513419
  H      0.107959   -0.489544    1.463861
  H      0.519331    0.992343    2.278560
  C      1.884218   -0.182364   -0.628575
  C      3.068644   -0.015064   -1.348803
  C      3.993778    0.955672   -0.985393
  C      2.650986    1.513284    0.904108
  C      3.793566    1.721311    0.147250
  H      3.258929   -0.627214   -2.218641
  H      4.886191    1.093357   -1.588887
  H      2.495620    2.091761    1.811492
  H      4.488606    2.505467    0.415225
  Pd     0.545915   -1.566660   -1.275811
  Br    -1.142469   -3.456944   -1.763346
  P      1.113779   -2.931980    0.396226
  H      0.131993   -3.295817    1.324766
  C      0.787718   -0.797347   -3.992900
  O      1.754604   -1.602260   -4.110845
  O      0.040469   -0.620220   -2.993076
  O      0.491288    0.009899   -5.037414
  H      2.154630   -2.620641    1.273265
  H      1.548909   -4.208537    0.011907
  H      1.144868   -0.151997   -5.710311

----------------------------
CARTESIAN COORDINATES (A.U.)
----------------------------
  NO LB      ZA    FRAG     MASS         X           Y           Z
   0 C     6.0000    0    12.011   -5.143807   -0.817872    1.406840
   1 C     6.0000    0    12.011   -3.936415    1.662309    2.234125
   2 C     6.0000    0    12.011   -7.531314   -1.139077    2.623626
   3 C     6.0000    0    12.011   -8.816863    0.628961    4.042884
   4 C     6.0000    0    12.011   -7.619422    2.868165    4.701321
   5 C     6.0000    0    12.011   -5.182625    3.305544    3.919995
   6 H     1.0000    0     1.008   -4.580463   -2.088564   -0.025872
   7 H     1.0000    0     1.008   -8.463327   -2.913238    2.148966
   8 H     1.0000    0     1.008   -4.215621    5.020606    4.526814
   9 H     1.0000    0     1.008  -10.719856    0.257508    4.664918
  10 H     1.0000    0     1.008   -8.598209    4.261467    5.823753
  11 C     6.0000    0    12.011   -1.476008    2.397288    1.102995
  12 C     6.0000    0    12.011    0.737078    1.037890    2.422656
  13 H     1.0000    0     1.008   -1.161459    4.448909    1.217511
  14 H     1.0000    0     1.008   -1.508111    1.997822   -0.907127
  15 C     6.0000    0    12.011    3.163423    1.152511    0.970222
  16 H     1.0000    0     1.008    0.204013   -0.925103    2.766296
  17 H     1.0000    0     1.008    0.981394    1.875256    4.305854
  18 C     6.0000    0    12.011    3.560657   -0.344618   -1.187835
  19 C     6.0000    0    12.011    5.798897   -0.028467   -2.548869
  20 C     6.0000    0    12.011    7.547147    1.805958   -1.862122
  21 C     6.0000    0    12.011    5.009638    2.859692    1.708517
  22 C     6.0000    0    12.011    7.168801    3.252807    0.278263
  23 H     1.0000    0     1.008    6.158484   -1.185263   -4.192624
  24 H     1.0000    0     1.008    9.233563    2.066145   -3.002560
  25 H     1.0000    0     1.008    4.716039    3.952856    3.423223
  26 H     1.0000    0     1.008    8.482236    4.734646    0.784661
  27 Pd   18.0000*   0   106.400    1.031631   -2.960559   -2.410933
  28 Br   35.0000    0    79.900   -2.158953   -6.532677   -3.332241
  29 P    15.0000    0    30.974    2.104737   -5.540638    0.748759
  30 H     1.0000    0     1.008    0.249431   -6.228191    2.503446
  31 C     6.0000    0    12.011    1.488571   -1.506767   -7.545487
  32 O     8.0000    0    15.999    3.315721   -3.027832   -7.768372
  33 O     8.0000    0    15.999    0.076475   -1.172045   -5.656095
  34 O     8.0000    0    15.999    0.928400    0.018707   -9.519333
  35 H     1.0000    0     1.008    4.071661   -4.952293    2.406121
  36 H     1.0000    0     1.008    2.927014   -7.952982    0.022501
  37 H     1.0000    0     1.008    2.163487   -0.287233  -10.790925
* core charge reduced due to ECP

--------------------------------
INTERNAL COORDINATES (ANGSTROEM)
--------------------------------
 C      0   0   0     0.000000000000     0.00000000     0.00000000
 C      1   0   0     1.523947007965     0.00000000     0.00000000
 C      1   2   0     1.428183950537   110.11282171     0.00000000
 C      3   1   2     1.379203250771   126.94948980     9.30211061
 C      4   3   1     1.388164186749   119.37885873   350.64678205
 C      5   4   3     1.373798296166   119.78392706     0.46714451
 H      1   2   3     1.056325307449   129.50059036   171.29341960
 H      3   1   2     1.089847670979   113.51237838   181.76195928
 H      6   5   4     1.090254688355   119.48245107   183.28377101
 H      4   3   1     1.077533622972   120.23624637   171.85404760
 H      5   4   3     1.079206184762   120.14808666   180.48516673
 C      2   1   3     1.484834983678   118.51645410   182.26702083
 C     12   2   1     1.541642983504   111.17869890   278.82683598
 H     12   2   1     1.100027338420   111.65363119   157.24058984
 H     12   2   1     1.084644968189   109.30260085    42.24031830
 C     13  12   2     1.497660356363   113.57169395   164.80106268
 H     13  12   2     1.091643966248   108.85534366    41.61236343
 H     13  12   2     1.098257383753   108.19107897   287.72287859
 C     16  13  12     1.405700232993   121.48659252   284.84749034
 C     19  16  13     1.396274358050   118.57935046   175.91444155
 C     20  19  16     1.389340452839   120.90685769   356.99701741
 C     16  13  12     1.386813452665   119.06243876   101.85214150
 C     21  20  19     1.381727056065   120.33764877     3.90309609
 H     20  19  16     1.080534328073   119.78475015   178.81442970
 H     21  20  19     1.086076855583   119.36522018   182.66624111
 H     22  16  13     1.087252742839   118.75305614     5.39216770
 H     23  21  20     1.081568556349   120.77906020   182.45813586
 Pd    19  16  13     2.031316034284   122.98441780   355.65284779
 Br    28  19  16     2.580989235169   172.00397730   307.30191428
 P     28  19  16     2.232100675892    90.60444123   286.02312445
 H     30  28  19     1.399452532343   118.52665386   118.77680731
 C     28  19  16     2.834234333189    93.68511337   136.14434704
 O     32  28  19     1.263591894278    88.96057589    87.75286285
 O     32  28  19     1.260714747212    39.40182813   261.67353067
 O     32  28  19     1.352969604995   152.05116498   278.98485738
 H     30  28  19     1.396244793825   121.58687339   355.16286776
 H     30  28  19     1.402368569751   115.49613002   236.45923489
 H     35  32  28     0.951928423815   107.08682374   163.94502357

---------------------------
INTERNAL COORDINATES (A.U.)
---------------------------
 C      0   0   0     0.000000000000     0.00000000     0.00000000
 C      1   0   0     2.879842487662     0.00000000     0.00000000
 C      1   2   0     2.698876535376   110.11282171     0.00000000
 C      3   1   2     2.606316426971   126.94948980     9.30211061
 C      4   3   1     2.623250141873   119.37885873   350.64678205
 C      5   4   3     2.596102543001   119.78392706     0.46714451
 H      1   2   3     1.996165539408   129.50059036   171.29341960
 H      3   1   2     2.059513625842   113.51237838   181.76195928
 H      6   5   4     2.060282777214   119.48245107   183.28377101
 H      4   3   1     2.036243447508   120.23624637   171.85404760
 H      5   4   3     2.039404131234   120.14808666   180.48516673
 C      2   1   3     2.805931473216   118.51645410   182.26702083
 C     12   2   1     2.913283035104   111.17869890   278.82683598
 H     12   2   1     2.078750409440   111.65363119   157.24058984
 H     12   2   1     2.049681942413   109.30260085    42.24031830
 C     13  12   2     2.830167915157   113.57169395   164.80106268
 H     13  12   2     2.062908131957   108.85534366    41.61236343
 H     13  12   2     2.075405679849   108.19107897   287.72287859
 C     16  13  12     2.656388466746   121.48659252   284.84749034
 C     19  16  13     2.638576144531   118.57935046   175.91444155
 C     20  19  16     2.625472962643   120.90685769   356.99701741
 C     16  13  12     2.620697624375   119.06243876   101.85214150
 C     21  20  19     2.611085727793   120.33764877     3.90309609
 H     20  19  16     2.041913958358   119.78475015   178.81442970
 H     21  20  19     2.052387817442   119.36522018   182.66624111
 H     22  16  13     2.054609922320   118.75305614     5.39216770
 H     23  21  20     2.043868366559   120.77906020   182.45813586
 Pd    19  16  13     3.838630996239   122.98441780   355.65284779
 Br    28  19  16     4.877362809069   172.00397730   307.30191428
 P     28  19  16     4.218058980776    90.60444123   286.02312445
 H     30  28  19     2.644582023551   118.52665386   118.77680731
 C     28  19  16     5.355926689085    93.68511337   136.14434704
 O     32  28  19     2.387842625227    88.96057589    87.75286285
 O     32  28  19     2.382405605226    39.40182813   261.67353067
 O     32  28  19     2.556742020959   152.05116498   278.98485738
 H     30  28  19     2.638520276242   121.58687339   355.16286776
 H     30  28  19     2.650092535648   115.49613002   236.45923489
 H     35  32  28     1.798884020106   107.08682374   163.94502357

---------------------
BASIS SET INFORMATION
---------------------
There are 6 groups of distinct atoms

 Group   1 Type C   : 8s4p1d contracted to 4s2p1d pattern {5111/31/1}
 Group   2 Type H   : 4s contracted to 2s pattern {31}
 Group   3 Type Pd  : 7s6p5d1f contracted to 5s3p2d1f pattern {31111/411/41/1}
 Group   4 Type Br  : 14s10p6d contracted to 5s4p3d pattern {63311/5311/411}
 Group   5 Type P   : 10s7p1d contracted to 4s3p1d pattern {5311/511/1}
 Group   6 Type O   : 8s4p1d contracted to 4s2p1d pattern {5111/31/1}

Atom   0C    basis set group =>   1
Atom   1C    basis set group =>   1
Atom   2C    basis set group =>   1
Atom   3C    basis set group =>   1
Atom   4C    basis set group =>   1
Atom   5C    basis set group =>   1
Atom   6H    basis set group =>   2
Atom   7H    basis set group =>   2
Atom   8H    basis set group =>   2
Atom   9H    basis set group =>   2
Atom  10H    basis set group =>   2
Atom  11C    basis set group =>   1
Atom  12C    basis set group =>   1
Atom  13H    basis set group =>   2
Atom  14H    basis set group =>   2
Atom  15C    basis set group =>   1
Atom  16H    basis set group =>   2
Atom  17H    basis set group =>   2
Atom  18C    basis set group =>   1
Atom  19C    basis set group =>   1
Atom  20C    basis set group =>   1
Atom  21C    basis set group =>   1
Atom  22C    basis set group =>   1
Atom  23H    basis set group =>   2
Atom  24H    basis set group =>   2
Atom  25H    basis set group =>   2
Atom  26H    basis set group =>   2
Atom  27Pd   basis set group =>   3
Atom  28Br   basis set group =>   4
Atom  29P    basis set group =>   5
Atom  30H    basis set group =>   2
Atom  31C    basis set group =>   1
Atom  32O    basis set group =>   6
Atom  33O    basis set group =>   6
Atom  34O    basis set group =>   6
Atom  35H    basis set group =>   2
Atom  36H    basis set group =>   2
Atom  37H    basis set group =>   2
---------------------------------
AUXILIARY/J BASIS SET INFORMATION
---------------------------------
There are 6 groups of distinct atoms

 Group   1 Type C   : 12s5p4d2f1g contracted to 6s4p3d1f1g pattern {711111/2111/211/2/1}
 Group   2 Type H   : 5s2p1d contracted to 3s1p1d pattern {311/2/1}
 Group   3 Type Pd  : 11s5p5d3f3g contracted to 8s5p5d2f3g pattern {41111111/11111/11111/21/111}
 Group   4 Type Br  : 19s5p5d3f1g contracted to 8s4p3d2f1g pattern {121111111/2111/311/21/1}
 Group   5 Type P   : 14s5p5d2f1g contracted to 8s4p3d1f1g pattern {71111111/2111/311/2/1}
 Group   6 Type O   : 12s5p4d2f1g contracted to 6s4p3d1f1g pattern {711111/2111/211/2/1}

Atom   0C    basis set group =>   1
Atom   1C    basis set group =>   1
Atom   2C    basis set group =>   1
Atom   3C    basis set group =>   1
Atom   4C    basis set group =>   1
Atom   5C    basis set group =>   1
Atom   6H    basis set group =>   2
Atom   7H    basis set group =>   2
Atom   8H    basis set group =>   2
Atom   9H    basis set group =>   2
Atom  10H    basis set group =>   2
Atom  11C    basis set group =>   1
Atom  12C    basis set group =>   1
Atom  13H    basis set group =>   2
Atom  14H    basis set group =>   2
Atom  15C    basis set group =>   1
Atom  16H    basis set group =>   2
Atom  17H    basis set group =>   2
Atom  18C    basis set group =>   1
Atom  19C    basis set group =>   1
Atom  20C    basis set group =>   1
Atom  21C    basis set group =>   1
Atom  22C    basis set group =>   1
Atom  23H    basis set group =>   2
Atom  24H    basis set group =>   2
Atom  25H    basis set group =>   2
Atom  26H    basis set group =>   2
Atom  27Pd   basis set group =>   3
Atom  28Br   basis set group =>   4
Atom  29P    basis set group =>   5
Atom  30H    basis set group =>   2
Atom  31C    basis set group =>   1
Atom  32O    basis set group =>   6
Atom  33O    basis set group =>   6
Atom  34O    basis set group =>   6
Atom  35H    basis set group =>   2
Atom  36H    basis set group =>   2
Atom  37H    basis set group =>   2
-------------------------
ECP PARAMETER INFORMATION
-------------------------

 Group 1, Type Pd ECP Def2-ECP (replacing 28 core electrons, lmax=3)

Atom  27Pd   ECP group =>   1

------------------------------------------------------------------------------
                           ORCA GTO INTEGRAL CALCULATION
                           -- RI-GTO INTEGRALS CHOSEN --
------------------------------------------------------------------------------
------------------------------------------------------------------------------
                   ___                                                        
                  /   \      - P O W E R E D   B Y -                         
                 /     \                                                     
                 |  |  |   _    _      __       _____    __    __             
                 |  |  |  | |  | |    /  \     |  _  \  |  |  /  |          
                  \  \/   | |  | |   /    \    | | | |  |  | /  /          
                 / \  \   | |__| |  /  /\  \   | |_| |  |  |/  /          
                |  |  |   |  __  | /  /__\  \  |    /   |      \           
                |  |  |   | |  | | |   __   |  |    \   |  |\   \          
                \     /   | |  | | |  |  |  |  | |\  \  |  | \   \       
                 \___/    |_|  |_| |__|  |__|  |_| \__\ |__|  \__/        
                                                                              
                      - O R C A' S   B I G   F R I E N D -                    
                                      &                                       
                       - I N T E G R A L  F E E D E R -                       
                                                                              
 v1 FN, 2020, v2 2021                                                         
------------------------------------------------------------------------------


Reading SHARK input file 1_1_orca.SHARKINP.tmp ... ok
----------------------
SHARK INTEGRAL PACKAGE
----------------------

Number of atoms                             ...     38
Number of basis functions                   ...    385
Number of shells                            ...    191
Maximum angular momentum                    ...      3
Integral batch strategy                     ... SHARK/LIBINT Hybrid
RI-J (if used) integral strategy            ... SPLIT-RIJ (Revised 2003 algorithm where possible)
Printlevel                                  ...      1
Contraction scheme used                     ... SEGMENTED contraction
Coulomb Range Separation                    ... NOT USED
Exchange Range Separation                   ... NOT USED
Finite Nucleus Model                        ... NOT USED
Auxiliary Coulomb fitting basis             ... AVAILABLE
   # of basis functions in Aux-J            ...   1267
   # of shells in Aux-J                     ...    413
   Maximum angular momentum in Aux-J        ...      4
Auxiliary J/K fitting basis                 ... NOT available
Auxiliary Correlation fitting basis         ... NOT available
Auxiliary 'external' fitting basis          ... NOT available
Integral threshold                          ...     2.500000e-11
Primitive cut-off                           ...     2.500000e-12
Primitive pair pre-selection threshold      ...     2.500000e-12

Calculating pre-screening integrals         ... done (  0.1 sec) Dimension = 191
Organizing shell pair data                  ... done (  0.1 sec)
Shell pair information
Total number of shell pairs                 ...     18336
Shell pairs after pre-screening             ...     12015
Total number of primitive shell pairs       ...     68628
Primitive shell pairs kept                  ...     27668
          la=0 lb=0:   4272 shell pairs
          la=1 lb=0:   4019 shell pairs
          la=1 lb=1:    915 shell pairs
          la=2 lb=0:   1682 shell pairs
          la=2 lb=1:    811 shell pairs
          la=2 lb=2:    182 shell pairs
          la=3 lb=0:     74 shell pairs
          la=3 lb=1:     40 shell pairs
          la=3 lb=2:     19 shell pairs
          la=3 lb=3:      1 shell pairs

Calculating one electron integrals          ... done (  0.1 sec)
Calculating ECP integrals                   ... done (  0.5 sec)
Calculating RI/J V-Matrix + Cholesky decomp.... done (  0.1 sec)
Calculating Nuclear repulsion               ... done (  0.0 sec) ENN=   2508.621022421721 Eh

SHARK setup successfully completed in   1.2 seconds

Maximum memory used throughout the entire GTOINT-calculation: 93.0 MB
-------------------------------------------------------------------------------
                                 ORCA SCF
-------------------------------------------------------------------------------

------------
SCF SETTINGS
------------
Hamiltonian:
 Density Functional     Method          .... DFT(GTOs)
 Exchange Functional    Exchange        .... PBE
   PBE kappa parameter   XKappa         ....  1.024500
   PBE mue parameter    XMuePBE         ....  0.123457
 Correlation Functional Correlation     .... PBE
   PBE beta parameter  CBetaPBE         ....  0.030000
 LDA part of GGA corr.  LDAOpt          .... PW91-LDA
 Gradients option       PostSCFGGA      .... off
 Hybrid DFT is turned on
   Fraction HF Exchange ScalHFX         ....  0.420000
   Scaling of DF-GGA-X  ScalDFX         ....  0.580000
   Scaling of DF-GGA-C  ScalDFC         ....  1.000000
   Scaling of DF-LDA-C  ScalLDAC        ....  1.000000
   Perturbative correction              ....  0.000000
   Density functional embedding theory  .... OFF
 RI-approximation to the Coulomb term is turned on
   Number of AuxJ basis functions       .... 1267
   RIJ-ON(X) (HFX calculated with O(N)) .... on
   Number of AuxJ basis functions       .... 1267
   RIJ-COSX (HFX calculated with COS-X)).... on


General Settings:
 Integral files         IntName         .... 1_1_orca
 Hartree-Fock type      HFTyp           .... RHF
 Total Charge           Charge          ....   -1
 Multiplicity           Mult            ....    1
 Number of Electrons    NEL             ....  200
 Basis Dimension        Dim             ....  385
 Nuclear Repulsion      ENuc            ....   2508.6210224217 Eh

Convergence Acceleration:
 DIIS                   CNVDIIS         .... on
   Start iteration      DIISMaxIt       ....    12
   Startup error        DIISStart       ....  0.200000
   # of expansion vecs  DIISMaxEq       ....     5
   Bias factor          DIISBfac        ....   1.050
   Max. coefficient     DIISMaxC        ....  10.000
 Trust-Rad. Augm. Hess. CNVTRAH         .... auto
   Auto Start mean grad. ratio tolernc. ....  1.125000
   Auto Start start iteration           ....    20
   Auto Start num. interpolation iter.  ....    10
   Max. Number of Micro iterations      ....    16
   Max. Number of Macro iterations      .... Maxiter - #DIIS iter
   Number of Davidson start vectors     ....     2
   Converg. threshold I  (grad. norm)   ....   1.000e-05
   Converg. threshold II (energy diff.) ....   1.000e-08
   Grad. Scal. Fac. for Micro threshold ....   0.100
   Minimum threshold for Micro iter.    ....   0.010
   NR start threshold (gradient norm)   ....   0.001
   Initial trust radius                 ....   0.400
   Minimum AH scaling param. (alpha)    ....   1.000
   Maximum AH scaling param. (alpha)    .... 1000.000
   Orbital update algorithm             .... Taylor
   White noise on init. David. guess    .... on
   Maximum white noise                  ....   0.010
   Quad. conv. algorithm                .... NR
   COSX micro iterations for RIJONX calc.... off
 SOSCF                  CNVSOSCF        .... off
 Level Shifting         CNVShift        .... on
   Level shift para.    LevelShift      ....    0.2500
   Turn off err/grad.   ShiftErr        ....    0.0010
 Zerner damping         CNVZerner       .... off
 Static damping         CNVDamp         .... on
   Fraction old density DampFac         ....    0.7000
   Max. Damping (<1)    DampMax         ....    0.9800
   Min. Damping (>=0)   DampMin         ....    0.0000
   Turn off err/grad.   DampErr         ....    0.1000
 Fernandez-Rico         CNVRico         .... off

SCF Procedure:
 Maximum # iterations   MaxIter         ....   250
 SCF integral mode      SCFMode         .... Direct
   Integral package                     .... SHARK and LIBINT hybrid scheme
 Reset frequency        DirectResetFreq ....    20
 Integral Threshold     Thresh          ....  2.500e-11 Eh
 Primitive CutOff       TCut            ....  2.500e-12 Eh

Convergence Tolerance:
 Convergence Check Mode ConvCheckMode   .... Total+1el-Energy
 Convergence forced     ConvForced      .... 0
 Energy Change          TolE            ....  1.000e-08 Eh
 1-El. energy change                    ....  1.000e-05 Eh
 DIIS Error             TolErr          ....  5.000e-07


Diagonalization of the overlap matrix:
Smallest eigenvalue                        ... 3.781e-04
Time for diagonalization                   ...    0.024 sec
Threshold for overlap eigenvalues          ... 1.000e-08
Number of eigenvalues below threshold      ... 0
Time for construction of square roots      ...    0.009 sec
Total time needed                          ...    0.033 sec

--------------------------------
INITIAL GUESS: MINIMAL BASIS EHT
--------------------------------
The minimal basis has 147 functions
EHT matrix was diagonalized
Basis set overlap was calculated now projecting the orbitals
Using GuessMode=FMatrix for the initial guess
C*T matrix was formed
Effective Fockian was calculated
Effective Fockian was diagonalized
Initial density was built
                      ------------------
                      INITIAL GUESS DONE
                      ------------------
-------------------
DFT GRID GENERATION
-------------------

General Integration Accuracy     IntAcc      ... 4.159
Radial Grid Type                 RadialGrid  ... OptM3 with GC (2021)
Angular Grid (max. ang.)         AngularGrid ... 3 (Lebedev-194)
Angular grid pruning method      GridPruning ... 4 (adaptive)
Weight generation scheme         WeightScheme... Becke
Basis function cutoff            BFCut       ... 1.0000e-11
Integration weight cutoff        WCut        ... 1.0000e-14
Angular grids for H and He will be reduced by one unit
Partially contracted basis set               ... off
Rotationally invariant grid construction     ... off

Total number of grid points                  ...    96826
Total number of batches                      ...     1529
Average number of points per batch           ...       63
Average number of grid points per atom       ...     2548
Time for grid setup =    2.043 sec

--------------------
COSX GRID GENERATION
--------------------

GRIDX 1
-------
General Integration Accuracy     IntAcc      ... 3.816
Radial Grid Type                 RadialGrid  ... OptM3 with GC (2021)
Angular Grid (max. ang.)         AngularGrid ... 1 (Lebedev-50)
Angular grid pruning method      GridPruning ... 4 (adaptive)
Weight generation scheme         WeightScheme... Becke
Basis function cutoff            BFCut       ... 1.0000e-11
Integration weight cutoff        WCut        ... 1.0000e-14
Angular grids for H and He will be reduced by one unit
Partially contracted basis set               ... on
Rotationally invariant grid construction     ... off

Total number of grid points                  ...    23684
Total number of batches                      ...      384
Average number of points per batch           ...       61
Average number of grid points per atom       ...      623
UseSFitting                                  ... on

GRIDX 2
-------
General Integration Accuracy     IntAcc      ... 4.020
Radial Grid Type                 RadialGrid  ... OptM3 with GC (2021)
Angular Grid (max. ang.)         AngularGrid ... 2 (Lebedev-110)
Angular grid pruning method      GridPruning ... 4 (adaptive)
Weight generation scheme         WeightScheme... Becke
Basis function cutoff            BFCut       ... 1.0000e-11
Integration weight cutoff        WCut        ... 1.0000e-14
Angular grids for H and He will be reduced by one unit
Partially contracted basis set               ... on
Rotationally invariant grid construction     ... off

Total number of grid points                  ...    51403
Total number of batches                      ...      821
Average number of points per batch           ...       62
Average number of grid points per atom       ...     1353
UseSFitting                                  ... on

GRIDX 3
-------
General Integration Accuracy     IntAcc      ... 4.338
Radial Grid Type                 RadialGrid  ... OptM3 with GC (2021)
Angular Grid (max. ang.)         AngularGrid ... 3 (Lebedev-194)
Angular grid pruning method      GridPruning ... 4 (adaptive)
Weight generation scheme         WeightScheme... Becke
Basis function cutoff            BFCut       ... 1.0000e-11
Integration weight cutoff        WCut        ... 1.0000e-14
Angular grids for H and He will be reduced by one unit
Partially contracted basis set               ... on
Rotationally invariant grid construction     ... off

Total number of grid points                  ...   112154
Total number of batches                      ...     1772
Average number of points per batch           ...       63
Average number of grid points per atom       ...     2951
UseSFitting                                  ... on

Time for X-Grid setup             =    5.271 sec

--------------
SCF ITERATIONS
--------------
ITER       Energy         Delta-E        Max-DP      RMS-DP      [F,P]     Damp
               ***  Starting incremental Fock matrix formation  ***
  0  -3829.2980523645   0.000000000000 3.99816274  0.04852351  5.2456231 0.7000
  1  -3812.7032848606  16.594767503914 6.30289980  0.05844707  4.0098376 0.7000
  2  -3799.7451094903  12.958175370296 2.99977764  0.02847570  2.4955854 0.7000
  3  -3812.4271548315 -12.682045341204 4.05545980  0.03938077  1.8937002 0.7000
  4  -3811.1579194884   1.269235343170 2.63655327  0.03498603  1.2396589 0.7000
  5  -3811.5022258696  -0.344306381211 4.39858904  0.04533845  0.9802497 0.7000
  6  -3794.0276138824  17.474611987141 2.83868297  0.03541852  0.5848423 0.7000
  7  -3808.8429172166 -14.815303334135 3.11279543  0.04257526  0.5149274 0.7000
  8  -3808.5692311799   0.273686036658 3.50077445  0.04040197  0.2661918 0.7000
  9  -3807.5076363145   1.061594865380 4.16857558  0.04326576  0.2810274 0.7000
 10  -3789.7706953005  17.736941014020 2.64459444  0.03308903  0.2823437 0.7000
 11  -3806.3294016608 -16.558706360323 3.06731150  0.04029346  0.2859806 0.7000
                               ***Turning on DIIS***
 12  -3808.5407485769  -2.211346916047 3.29290656  0.03838062  0.2365904 0.7000
 13  -3808.0091549690   0.531593607892 2.11876013  0.02674645  0.2704729 0.7000
 14  -3811.8651036992  -3.855948730168 1.58570050  0.01944845  0.3378167 0.7000
 15  -3815.2744438679  -3.409340168771 1.13321048  0.01386451  0.4272747 0.7000
 16  -3818.5541044068  -3.279660538920 0.80455641  0.00990747  0.4978324 0.7000
 17  -3821.7470271120  -3.192922705183 5.26255133  0.04913329  0.5474080 0.7000
 18  -3811.5996147541  10.147412357911 1.89984014  0.01969699  0.3055458 0.7000
 19  -3826.7433713913 -15.143756637153 1.34479521  0.01479210  0.2197618 0.7000
               *** Restarting incremental Fock matrix formation ***
                                   *** Resetting DIIS ***

 WARNING: the maximum gradient error descreased on average only by a factor   1.0
          during the last 20 iterations

                      *** Initiating the TRAH-SCF procedure ***


TRAH GRIDX
----------

General Integration Accuracy     IntAcc      ... 3.067
Radial Grid Type                 RadialGrid  ... OptM3 with GC (2021)
Angular Grid (max. ang.)         AngularGrid ... 1 (Lebedev-50)
Angular grid pruning method      GridPruning ... 4 (adaptive)
Weight generation scheme         WeightScheme... Becke
Basis function cutoff            BFCut       ... 1.0000e-11
Integration weight cutoff        WCut        ... 1.0000e-14
Angular grids for H and He will be reduced by one unit
Partially contracted basis set               ... on
Rotationally invariant grid construction     ... off

Total number of grid points                  ...    12950
Total number of batches                      ...      224
Average number of points per batch           ...       57
Average number of grid points per atom       ...      341


TRAH GRID
---------

General Integration Accuracy     IntAcc      ... 3.467
Radial Grid Type                 RadialGrid  ... OptM3 with GC (2021)
Angular Grid (max. ang.)         AngularGrid ... 1 (Lebedev-50)
Angular grid pruning method      GridPruning ... 4 (adaptive)
Weight generation scheme         WeightScheme... Becke
Basis function cutoff            BFCut       ... 1.0000e-11
Integration weight cutoff        WCut        ... 1.0000e-14
Angular grids for H and He will be reduced by one unit
Partially contracted basis set               ... off
Rotationally invariant grid construction     ... off

Total number of grid points                  ...    32935
Total number of batches                      ...      532
Average number of points per batch           ...       61
Average number of grid points per atom       ...      867

 --------------------------------------------------------------------------------------------
   Iter.        energy            ||Error||_2        Shift      TRadius  Mac/Mic        Rej.
 --------------------------------------------------------------------------------------------
WARNING: 2611 diagonal Hessian elements are negative!
    0      -3837.608720167871     8.551657e+00                     0.400 (TRAH MAcro)   No
WARNING : negative HOMO - LUMO gap : -3.194256
    0     dE    -2.866284e+00     3.532861e+00    -1.4450e+01      0.400 (TRAH MIcro)
    0     dE    -3.053596e+00     1.870754e+00    -1.8378e+01      0.400 (TRAH MIcro)
    0     dE    -3.014369e+00     1.610226e+00    -1.8857e+01      0.394 (TRAH MIcro)
    0     dE    -3.034934e+00     6.158341e-01    -1.8952e+01      0.394 (TRAH MIcro)
    0     dE    -3.083263e+00     1.406051e-01    -1.8695e+01      0.400 (TRAH MIcro)
    0     dE    -3.083760e+00     7.435126e-02    -1.8688e+01      0.400 (TRAH MIcro)
    0     dE    -3.083798e+00     6.125824e-02    -1.8687e+01      0.400 (TRAH MIcro)
    0     dE    -3.083820e+00     4.327059e-02    -1.8687e+01      0.400 (TRAH MIcro)
    0     dE    -3.083833e+00     1.860402e-02    -1.8688e+01      0.400 (TRAH MIcro)
    0     dE    -3.083850e+00     6.730127e-03    -1.8688e+01      0.400 (TRAH MIcro)
WARNING: 1990 diagonal Hessian elements are negative!
    1      -3840.589176277699     6.741139e+00                     0.480 (TRAH MAcro)   No
WARNING : negative HOMO - LUMO gap : -2.608898
    1     dE    -2.599145e+00     2.476948e+00    -8.5180e+00      0.480 (TRAH MIcro)
    1     dE    -2.748398e+00     8.820916e-01    -1.1520e+01      0.470 (TRAH MIcro)
    1     dE    -2.817272e+00     6.199590e-01    -1.1628e+01      0.480 (TRAH MIcro)
    1     dE    -2.823235e+00     3.867637e-01    -1.1767e+01      0.480 (TRAH MIcro)
    1     dE    -2.826212e+00     1.812835e-01    -1.1763e+01      0.480 (TRAH MIcro)
    1     dE    -2.827260e+00     7.692853e-02    -1.1735e+01      0.480 (TRAH MIcro)
    1     dE    -2.827495e+00     3.609856e-02    -1.1719e+01      0.480 (TRAH MIcro)
    1     dE    -2.827530e+00     2.378726e-02    -1.1713e+01      0.480 (TRAH MIcro)
    1     dE    -2.827546e+00     1.419510e-02    -1.1709e+01      0.480 (TRAH MIcro)
    1     dE    -2.827552e+00     7.509529e-03    -1.1708e+01      0.480 (TRAH MIcro)
WARNING: 1268 diagonal Hessian elements are negative!
    2      -3843.226383832228     4.548858e+00                     0.576 (TRAH MAcro)   No
WARNING : negative HOMO - LUMO gap : -1.945855
    2     dE    -1.669460e+00     2.749322e+00    -2.5435e+00      0.559 (TRAH MIcro)
    2     dE    -2.310393e+00     9.503160e-01    -8.0848e+00      0.576 (TRAH MIcro)
    2     dE    -2.356715e+00     4.995294e-01    -8.6048e+00      0.576 (TRAH MIcro)
    2     dE    -2.304722e+00     2.165928e-01    -8.8695e+00      0.563 (TRAH MIcro)
    2     dE    -2.344057e+00     1.068245e-01    -8.8789e+00      0.570 (TRAH MIcro)
    2     dE    -2.350545e+00     6.371804e-02    -8.8805e+00      0.571 (TRAH MIcro)
    2     dE    -2.350444e+00     3.595013e-02    -8.8810e+00      0.571 (TRAH MIcro)
    2     dE    -2.349448e+00     1.534916e-02    -8.8812e+00      0.571 (TRAH MIcro)
    2     dE    -2.348810e+00     7.169910e-03    -8.8812e+00      0.571 (TRAH MIcro)
WARNING: 489 diagonal Hessian elements are negative!
    3      -3845.256647996444     3.431492e+00                     0.691 (TRAH MAcro)   No
WARNING : negative HOMO - LUMO gap : -0.966304
    3     dE    -1.571851e+00     3.926734e+00    -2.2172e+00      0.646 (TRAH MIcro)
    3     dE    -2.189442e+00     9.253115e-01    -5.0264e+00      0.691 (TRAH MIcro)
    3     dE    -2.217022e+00     2.898584e-01    -5.2579e+00      0.691 (TRAH MIcro)
    3     dE    -2.221297e+00     1.281363e-01    -5.2988e+00      0.691 (TRAH MIcro)
    3     dE    -2.221897e+00     6.256482e-02    -5.2939e+00      0.691 (TRAH MIcro)
    3     dE    -2.222029e+00     2.232476e-02    -5.2899e+00      0.691 (TRAH MIcro)
    3     dE    -2.222054e+00     9.449508e-03    -5.2895e+00      0.691 (TRAH MIcro)
WARNING: 13 diagonal Hessian elements are negative!
    4      -3846.959146865393     1.805789e+00                     0.829 (TRAH MAcro)   No
WARNING : negative HOMO - LUMO gap : -0.060874
    4     dE    -5.245101e-01     1.492540e+00    -8.5640e-01      0.474 (TRAH MIcro)
    4     dE    -7.429548e-01     3.251504e-01    -1.0367e+00      0.658 (TRAH MIcro)
    4     dE    -7.635122e-01     1.142471e-01    -1.0462e+00      0.678 (TRAH MIcro)
    4     dE    -7.675783e-01     6.737841e-02    -1.0471e+00      0.683 (TRAH MIcro)
    4     dE    -7.688804e-01     2.264553e-02    -1.0474e+00      0.684 (TRAH MIcro)
    4     dE    -7.693460e-01     8.717221e-03    -1.0474e+00      0.685 (TRAH MIcro)
    5      -3847.667358364244     6.519251e-01                     0.995 (TRAH MAcro)   No
    5     dE    -7.117825e-02     2.829470e+00    -1.3639e-01      0.209 (TRAH MIcro)
    5     dE    -1.027204e-01     1.456712e+00    -1.8768e-01      0.308 (TRAH MIcro)
    5     dE    -1.081626e-01     2.924608e-01    -1.9572e-01      0.324 (TRAH MIcro)
    5     dE    -1.090155e-01     7.951922e-02    -1.9686e-01      0.328 (TRAH MIcro)
    5     dE    -1.091641e-01     6.702730e-02    -1.9698e-01      0.329 (TRAH MIcro)
    5     dE    -1.092213e-01     7.435856e-03    -1.9700e-01      0.330 (TRAH MIcro)
    6      -3847.782204405569     1.992834e-01                     1.194 (TRAH MAcro)   No
    6     dE    -2.733919e-03     1.693578e+00    -5.4637e-03      0.027 (TRAH MIcro)
    6     dE    -7.617768e-03     9.143820e-02    -1.5108e-02      0.092 (TRAH MIcro)
    6     dE    -7.703445e-03     5.640828e-02    -1.5271e-02      0.094 (TRAH MIcro)
    6     dE    -7.718950e-03     4.962723e-03    -1.5299e-02      0.095 (TRAH MIcro)
    7      -3847.790310889606     2.053482e-02                     1.433 (TRAH MAcro)   No
    7     dE    -9.574568e-06     1.610005e-01    -1.9149e-05      0.001 (TRAH MIcro)
    7     dE    -6.343182e-05     3.676859e-02    -1.2686e-04      0.007 (TRAH MIcro)
    7     dE    -7.254396e-05     9.952289e-03    -1.4507e-04      0.009 (TRAH MIcro)
    7     dE    -7.358139e-05     8.062479e-04    -1.4715e-04      0.010 (TRAH MIcro)
    8      -3847.790384930607     8.268639e-04                           (NR   MAcro)
    8     dE    -5.038903e-08     3.660757e-04                           (NR   MIcro)
    8     dE    -7.129786e-08     1.863061e-04                           (NR   MIcro)
    8     dE    -7.369287e-08     8.116013e-05                           (NR   MIcro)
    8     dE    -7.419959e-08     3.732727e-05                           (NR   MIcro)
    8     dE    -7.432983e-08     1.711930e-05                           (NR   MIcro)
    8     dE    -7.435269e-08     7.602920e-06                           (NR   MIcro)
    8     dE    -7.435676e-08     3.369427e-06                           (NR   MIcro)
    9      -3847.790385001422     3.553484e-06                           (NR   MAcro)
    9     dE    -1.037820e-12     1.646697e-06                           (NR   MIcro)
    9     dE    -1.408799e-12     9.851529e-07                           (NR   MIcro)
   10      -3847.790385001385     9.848681e-07                           (NR   MAcro)

               *****************************************************
               *                     SUCCESS                       *
               *           SCF CONVERGED AFTER  96 CYCLES          *
               *****************************************************

Old exchange energy                            =    -97.775096387 Eh
New exchange energy                            =    -97.775384408 Eh
Exchange energy change after final integration =     -0.000288021 Eh
Total energy after final integration           =  -3847.790673022 Eh
Final COS-X integration done in                =    66.431 sec

----------------
TOTAL SCF ENERGY
----------------

Total Energy       :        -3847.79067302 Eh         -104703.70725 eV

Components:
Nuclear Repulsion  :         2508.62102242 Eh           68263.04845 eV
Electronic Energy  :        -6356.41169544 Eh         -172966.75569 eV
One Electron Energy:       -10402.04886361 Eh         -283054.13977 eV
Two Electron Energy:         4045.63716816 Eh          110087.38408 eV
Max COSX asymmetry :            0.00004142 Eh               0.00113 eV

Virial components:
Potential Energy   :        -7606.86040859 Eh         -206993.19505 eV
Kinetic Energy     :         3759.06973557 Eh          102289.48780 eV
Virial Ratio       :            2.02360183


DFT components:
N(Alpha)           :      100.000291013874 electrons
N(Beta)            :      100.000291013874 electrons
N(Total)           :      200.000582027749 electrons
E(X)               :     -130.860652595970 Eh       
E(C)               :       -9.710777020714 Eh       
E(XC)              :     -140.571429616683 Eh       
DFET-embed. en.    :        0.000000000000 Eh       

---------------
SCF CONVERGENCE
---------------

  Last Energy change         ...    3.6380e-11  Tolerance :   1.0000e-08
  Last Orbital Gradient      ...    9.8487e-07  Tolerance :   1.0000e-05
  Last Orbital Rotation      ...    1.4449e-06

             **** THE GBW FILE WAS UPDATED (1_1_orca.gbw) ****
             **** DENSITY 1_1_orca.scfp WAS UPDATED ****
             **** ENERGY FILE WAS UPDATED (1_1_orca.en.tmp) ****
             **** THE GBW FILE WAS UPDATED (1_1_orca.gbw) ****
             **** DENSITY 1_1_orca.scfp WAS UPDATED ****
----------------
ORBITAL ENERGIES
----------------

  NO   OCC          E(Eh)            E(eV) 
   0   2.0000    -484.319613    -13179.0067 
   1   2.0000     -77.673865     -2113.6133 
   2   2.0000     -62.981293     -1713.8081 
   3   2.0000     -56.684929     -1542.4753 
   4   2.0000     -56.683979     -1542.4495 
   5   2.0000     -56.683893     -1542.4471 
   6   2.0000     -19.381558      -527.3990 
   7   2.0000     -19.334882      -526.1289 
   8   2.0000     -19.294783      -525.0377 
   9   2.0000     -10.445480      -284.2360 
  10   2.0000     -10.376179      -282.3502 
  11   2.0000     -10.363060      -281.9932 
  12   2.0000     -10.360661      -281.9279 
  13   2.0000     -10.357526      -281.8426 
  14   2.0000     -10.357405      -281.8393 
  15   2.0000     -10.356377      -281.8113 
  16   2.0000     -10.338603      -281.3277 
  17   2.0000     -10.336379      -281.2672 
  18   2.0000     -10.336180      -281.2618 
  19   2.0000     -10.334349      -281.2119 
  20   2.0000     -10.333199      -281.1806 
  21   2.0000     -10.331414      -281.1321 
  22   2.0000     -10.330136      -281.0973 
  23   2.0000     -10.319077      -280.7963 
  24   2.0000      -8.808613      -239.6945 
  25   2.0000      -6.749183      -183.6546 
  26   2.0000      -6.577869      -178.9929 
  27   2.0000      -6.573389      -178.8710 
  28   2.0000      -6.573289      -178.8683 
  29   2.0000      -4.840266      -131.7103 
  30   2.0000      -4.840056      -131.7046 
  31   2.0000      -4.838335      -131.6578 
  32   2.0000      -3.520119       -95.7873 
  33   2.0000      -2.592011       -70.5322 
  34   2.0000      -2.590745       -70.4978 
  35   2.0000      -2.590627       -70.4946 
  36   2.0000      -2.586730       -70.3885 
  37   2.0000      -2.586718       -70.3882 
  38   2.0000      -2.166663       -58.9579 
  39   2.0000      -2.162415       -58.8423 
  40   2.0000      -2.133674       -58.0602 
  41   2.0000      -1.075290       -29.2601 
  42   2.0000      -0.968061       -26.3423 
  43   2.0000      -0.913404       -24.8550 
  44   2.0000      -0.858611       -23.3640 
  45   2.0000      -0.842069       -22.9139 
  46   2.0000      -0.790347       -21.5064 
  47   2.0000      -0.745791       -20.2940 
  48   2.0000      -0.740139       -20.1402 
  49   2.0000      -0.712687       -19.3932 
  50   2.0000      -0.686755       -18.6876 
  51   2.0000      -0.654112       -17.7993 
  52   2.0000      -0.629114       -17.1191 
  53   2.0000      -0.621245       -16.9049 
  54   2.0000      -0.586928       -15.9711 
  55   2.0000      -0.559495       -15.2246 
  56   2.0000      -0.554865       -15.0986 
  57   2.0000      -0.543740       -14.7959 
  58   2.0000      -0.534298       -14.5390 
  59   2.0000      -0.488464       -13.2918 
  60   2.0000      -0.459162       -12.4944 
  61   2.0000      -0.438375       -11.9288 
  62   2.0000      -0.434136       -11.8134 
  63   2.0000      -0.409788       -11.1509 
  64   2.0000      -0.409085       -11.1318 
  65   2.0000      -0.398799       -10.8519 
  66   2.0000      -0.390941       -10.6380 
  67   2.0000      -0.389387       -10.5958 
  68   2.0000      -0.378293       -10.2939 
  69   2.0000      -0.376786       -10.2529 
  70   2.0000      -0.372699       -10.1417 
  71   2.0000      -0.369640       -10.0584 
  72   2.0000      -0.362562        -9.8658 
  73   2.0000      -0.357300        -9.7226 
  74   2.0000      -0.346228        -9.4213 
  75   2.0000      -0.335770        -9.1368 
  76   2.0000      -0.334340        -9.0979 
  77   2.0000      -0.319511        -8.6943 
  78   2.0000      -0.310184        -8.4405 
  79   2.0000      -0.306422        -8.3382 
  80   2.0000      -0.296563        -8.0699 
  81   2.0000      -0.292791        -7.9672 
  82   2.0000      -0.275778        -7.5043 
  83   2.0000      -0.272113        -7.4046 
  84   2.0000      -0.263583        -7.1725 
  85   2.0000      -0.258809        -7.0426 
  86   2.0000      -0.240857        -6.5540 
  87   2.0000      -0.222962        -6.0671 
  88   2.0000      -0.213762        -5.8168 
  89   2.0000      -0.202239        -5.5032 
  90   2.0000      -0.192912        -5.2494 
  91   2.0000      -0.183884        -5.0037 
  92   2.0000      -0.183105        -4.9825 
  93   2.0000      -0.175621        -4.7789 
  94   2.0000      -0.169562        -4.6140 
  95   2.0000      -0.160634        -4.3711 
  96   2.0000      -0.152433        -4.1479 
  97   2.0000      -0.146234        -3.9792 
  98   2.0000      -0.142448        -3.8762 
  99   2.0000      -0.138801        -3.7770 
 100   0.0000       0.093153         2.5348 
 101   0.0000       0.106947         2.9102 
 102   0.0000       0.115014         3.1297 
 103   0.0000       0.133364         3.6290 
 104   0.0000       0.138515         3.7692 
 105   0.0000       0.152738         4.1562 
 106   0.0000       0.160295         4.3619 
 107   0.0000       0.187760         5.1092 
 108   0.0000       0.211703         5.7607 
 109   0.0000       0.220795         6.0081 
 110   0.0000       0.226885         6.1739 
 111   0.0000       0.233424         6.3518 
 112   0.0000       0.245700         6.6858 
 113   0.0000       0.260947         7.1007 
 114   0.0000       0.266782         7.2595 
 115   0.0000       0.271420         7.3857 
 116   0.0000       0.284286         7.7358 
 117   0.0000       0.287726         7.8294 
 118   0.0000       0.297652         8.0995 
 119   0.0000       0.300754         8.1839 
 120   0.0000       0.306341         8.3360 
 121   0.0000       0.311906         8.4874 
 122   0.0000       0.318008         8.6535 
 123   0.0000       0.325460         8.8562 
 124   0.0000       0.331838         9.0298 
 125   0.0000       0.342862         9.3297 
 126   0.0000       0.343903         9.3581 
 127   0.0000       0.354924         9.6580 
 128   0.0000       0.369253        10.0479 
 129   0.0000       0.378304        10.2942 
 130   0.0000       0.383575        10.4376 
 131   0.0000       0.392832        10.6895 
 132   0.0000       0.397970        10.8293 
 133   0.0000       0.415866        11.3163 
 134   0.0000       0.427623        11.6362 
 135   0.0000       0.431346        11.7375 
 136   0.0000       0.439181        11.9507 
 137   0.0000       0.450608        12.2617 
 138   0.0000       0.454838        12.3768 
 139   0.0000       0.467215        12.7136 
 140   0.0000       0.473770        12.8919 
 141   0.0000       0.493492        13.4286 
 142   0.0000       0.496670        13.5151 
 143   0.0000       0.513933        13.9848 
 144   0.0000       0.544100        14.8057 
 145   0.0000       0.547036        14.8856 
 146   0.0000       0.559501        15.2248 
 147   0.0000       0.571369        15.5478 
 148   0.0000       0.582838        15.8598 
 149   0.0000       0.591488        16.0952 
 150   0.0000       0.599449        16.3118 
 151   0.0000       0.606422        16.5016 
 152   0.0000       0.609174        16.5765 
 153   0.0000       0.616550        16.7772 
 154   0.0000       0.618356        16.8263 
 155   0.0000       0.631201        17.1758 
 156   0.0000       0.639495        17.4016 
 157   0.0000       0.651196        17.7199 
 158   0.0000       0.657213        17.8837 
 159   0.0000       0.662214        18.0197 
 160   0.0000       0.675344        18.3771 
 161   0.0000       0.679701        18.4956 
 162   0.0000       0.681127        18.5344 
 163   0.0000       0.690193        18.7811 
 164   0.0000       0.694325        18.8935 
 165   0.0000       0.697691        18.9851 
 166   0.0000       0.705682        19.2026 
 167   0.0000       0.712962        19.4007 
 168   0.0000       0.715795        19.4778 
 169   0.0000       0.722798        19.6683 
 170   0.0000       0.726034        19.7564 
 171   0.0000       0.730117        19.8675 
 172   0.0000       0.740408        20.1475 
 173   0.0000       0.744104        20.2481 
 174   0.0000       0.746776        20.3208 
 175   0.0000       0.752594        20.4791 
 176   0.0000       0.759638        20.6708 
 177   0.0000       0.764531        20.8040 
 178   0.0000       0.768818        20.9206 
 179   0.0000       0.774746        21.0819 
 180   0.0000       0.779016        21.1981 
 181   0.0000       0.782911        21.3041 
 182   0.0000       0.787552        21.4304 
 183   0.0000       0.791477        21.5372 
 184   0.0000       0.803852        21.8739 
 185   0.0000       0.806247        21.9391 
 186   0.0000       0.811505        22.0822 
 187   0.0000       0.823932        22.4203 
 188   0.0000       0.838751        22.8236 
 189   0.0000       0.839789        22.8518 
 190   0.0000       0.854374        23.2487 
 191   0.0000       0.860620        23.4187 
 192   0.0000       0.870378        23.6842 
 193   0.0000       0.880766        23.9669 
 194   0.0000       0.884186        24.0599 
 195   0.0000       0.890470        24.2309 
 196   0.0000       0.900400        24.5011 
 197   0.0000       0.918690        24.9988 
 198   0.0000       0.922444        25.1010 
 199   0.0000       0.924180        25.1482 
 200   0.0000       0.964094        26.2343 
 201   0.0000       0.967559        26.3286 
 202   0.0000       0.992382        27.0041 
 203   0.0000       0.992824        27.0161 
 204   0.0000       1.005856        27.3707 
 205   0.0000       1.026617        27.9357 
 206   0.0000       1.032299        28.0903 
 207   0.0000       1.034841        28.1595 
 208   0.0000       1.045050        28.4373 
 209   0.0000       1.049901        28.5693 
 210   0.0000       1.058948        28.8154 
 211   0.0000       1.066685        29.0260 
 212   0.0000       1.073228        29.2040 
 213   0.0000       1.083186        29.4750 
 214   0.0000       1.089684        29.6518 
 215   0.0000       1.104373        30.0515 
 216   0.0000       1.106143        30.0997 
 217   0.0000       1.120807        30.4987 
 218   0.0000       1.130930        30.7742 
 219   0.0000       1.135182        30.8899 
 220   0.0000       1.143690        31.1214 
 221   0.0000       1.149135        31.2696 
 222   0.0000       1.163953        31.6728 
 223   0.0000       1.172932        31.9171 
 224   0.0000       1.178454        32.0674 
 225   0.0000       1.179831        32.1048 
 226   0.0000       1.189843        32.3773 
 227   0.0000       1.197108        32.5750 
 228   0.0000       1.212927        33.0054 
 229   0.0000       1.214946        33.0604 
 230   0.0000       1.231025        33.4979 
 231   0.0000       1.233618        33.5685 
 232   0.0000       1.243480        33.8368 
 233   0.0000       1.246537        33.9200 
 234   0.0000       1.261590        34.3296 
 235   0.0000       1.263514        34.3820 
 236   0.0000       1.267348        34.4863 
 237   0.0000       1.277080        34.7511 
 238   0.0000       1.291899        35.1543 
 239   0.0000       1.304298        35.4917 
 240   0.0000       1.325663        36.0731 
 241   0.0000       1.336039        36.3555 
 242   0.0000       1.342167        36.5222 
 243   0.0000       1.351695        36.7815 
 244   0.0000       1.365377        37.1538 
 245   0.0000       1.379258        37.5315 
 246   0.0000       1.384632        37.6777 
 247   0.0000       1.395144        37.9638 
 248   0.0000       1.400668        38.1141 
 249   0.0000       1.420428        38.6518 
 250   0.0000       1.437949        39.1286 
 251   0.0000       1.439120        39.1605 
 252   0.0000       1.448118        39.4053 
 253   0.0000       1.454561        39.5806 
 254   0.0000       1.473101        40.0851 
 255   0.0000       1.508103        41.0376 
 256   0.0000       1.550828        42.2002 
 257   0.0000       1.585265        43.1373 
 258   0.0000       1.590390        43.2767 
 259   0.0000       1.604508        43.6609 
 260   0.0000       1.615686        43.9650 
 261   0.0000       1.623996        44.1912 
 262   0.0000       1.635117        44.4938 
 263   0.0000       1.647997        44.8443 
 264   0.0000       1.650348        44.9082 
 265   0.0000       1.659526        45.1580 
 266   0.0000       1.668446        45.4007 
 267   0.0000       1.680048        45.7164 
 268   0.0000       1.689200        45.9655 
 269   0.0000       1.693227        46.0750 
 270   0.0000       1.703633        46.3582 
 271   0.0000       1.733166        47.1618 
 272   0.0000       1.766794        48.0769 
 273   0.0000       1.789825        48.7036 
 274   0.0000       1.876377        51.0588 
 275   0.0000       1.899093        51.6770 
 276   0.0000       1.926815        52.4313 
 277   0.0000       1.940979        52.8167 
 278   0.0000       1.951500        53.1030 
 279   0.0000       1.972105        53.6637 
 280   0.0000       1.977969        53.8233 
 281   0.0000       1.981347        53.9152 
 282   0.0000       1.994534        54.2740 
 283   0.0000       2.009576        54.6833 
 284   0.0000       2.061624        56.0997 
 285   0.0000       2.079913        56.5973 
 286   0.0000       2.081740        56.6470 
 287   0.0000       2.099074        57.1187 
 288   0.0000       2.103904        57.2501 
 289   0.0000       2.113922        57.5227 
 290   0.0000       2.121207        57.7210 
 291   0.0000       2.133327        58.0508 
 292   0.0000       2.135922        58.1214 
 293   0.0000       2.153487        58.5994 
 294   0.0000       2.156590        58.6838 
 295   0.0000       2.173311        59.1388 
 296   0.0000       2.180295        59.3289 
 297   0.0000       2.185571        59.4724 
 298   0.0000       2.202978        59.9461 
 299   0.0000       2.239290        60.9342 
 300   0.0000       2.248714        61.1906 
 301   0.0000       2.261274        61.5324 
 302   0.0000       2.274056        61.8802 
 303   0.0000       2.280759        62.0626 
 304   0.0000       2.289780        62.3081 
 305   0.0000       2.297897        62.5290 
 306   0.0000       2.319724        63.1229 
 307   0.0000       2.326357        63.3034 
 308   0.0000       2.341780        63.7231 
 309   0.0000       2.350675        63.9651 
 310   0.0000       2.363390        64.3111 
 311   0.0000       2.378845        64.7317 
 312   0.0000       2.387721        64.9732 
 313   0.0000       2.402939        65.3873 
 314   0.0000       2.418351        65.8067 
 315   0.0000       2.448768        66.6344 
 316   0.0000       2.470827        67.2346 
 317   0.0000       2.485787        67.6417 
 318   0.0000       2.497235        67.9532 
 319   0.0000       2.504962        68.1635 
 320   0.0000       2.528112        68.7934 
 321   0.0000       2.573791        70.0364 
 322   0.0000       2.580367        70.2154 
 323   0.0000       2.590897        70.5019 
 324   0.0000       2.600072        70.7515 
 325   0.0000       2.606977        70.9394 
 326   0.0000       2.619452        71.2789 
 327   0.0000       2.633797        71.6693 
 328   0.0000       2.650203        72.1157 
 329   0.0000       2.660523        72.3965 
 330   0.0000       2.691503        73.2395 
 331   0.0000       2.711060        73.7717 
 332   0.0000       2.734924        74.4211 
 333   0.0000       2.756676        75.0130 
 334   0.0000       2.774305        75.4927 
 335   0.0000       2.779672        75.6387 
 336   0.0000       2.783795        75.7509 
 337   0.0000       2.808038        76.4106 
 338   0.0000       2.811537        76.5058 
 339   0.0000       2.842425        77.3463 
 340   0.0000       2.851593        77.5958 
 341   0.0000       2.866129        77.9913 
 342   0.0000       2.879683        78.3601 
 343   0.0000       2.911846        79.2354 
 344   0.0000       2.924682        79.5846 
 345   0.0000       2.931940        79.7821 
 346   0.0000       2.939008        79.9745 
 347   0.0000       2.956166        80.4414 
 348   0.0000       2.961215        80.5787 
 349   0.0000       2.968833        80.7861 
 350   0.0000       2.986227        81.2594 
 351   0.0000       3.027104        82.3717 
 352   0.0000       3.049344        82.9769 
 353   0.0000       3.077258        83.7364 
 354   0.0000       3.174155        86.3731 
 355   0.0000       3.206130        87.2432 
 356   0.0000       3.261407        88.7474 
 357   0.0000       3.296365        89.6987 
 358   0.0000       3.388484        92.2053 
 359   0.0000       3.489007        94.9407 
 360   0.0000       3.582641        97.4886 
 361   0.0000       3.737996       101.7160 
 362   0.0000       3.762239       102.3757 
 363   0.0000       3.810017       103.6758 
 364   0.0000       3.836168       104.3874 
 365   0.0000       4.080934       111.0479 
 366   0.0000      13.345790       363.1574 
 367   0.0000      13.428619       365.4113 
 368   0.0000      13.702991       372.8773 
 369   0.0000      13.748549       374.1170 
 370   0.0000      13.831562       376.3759 
 371   0.0000      13.841042       376.6339 
 372   0.0000      13.994423       380.8076 
 373   0.0000      14.146532       384.9467 
 374   0.0000      14.199023       386.3751 
 375   0.0000      14.224861       387.0781 
 376   0.0000      14.238681       387.4542 
 377   0.0000      14.265830       388.1930 
 378   0.0000      14.298842       389.0913 
 379   0.0000      14.573158       396.5558 
 380   0.0000      14.678262       399.4158 
 381   0.0000      25.720472       699.8896 
 382   0.0000      25.885739       704.3868 
 383   0.0000      25.934449       705.7122 
 384   0.0000      51.776446      1408.9087 

                    ********************************
                    * MULLIKEN POPULATION ANALYSIS *
                    ********************************

-----------------------
MULLIKEN ATOMIC CHARGES
-----------------------
   0 C :   -0.247904
   1 C :    0.046235
   2 C :   -0.244462
   3 C :   -0.205891
   4 C :   -0.221913
   5 C :   -0.240850
   6 H :    0.309218
   7 H :    0.207095
   8 H :    0.195550
   9 H :    0.197055
  10 H :    0.194320
  11 C :   -0.504973
  12 C :   -0.502844
  13 H :    0.213195
  14 H :    0.312799
  15 C :    0.129826
  16 H :    0.241788
  17 H :    0.207106
  18 C :   -0.148493
  19 C :   -0.262370
  20 C :   -0.234864
  21 C :   -0.288242
  22 C :   -0.222496
  23 H :    0.263081
  24 H :    0.182780
  25 H :    0.172190
  26 H :    0.178195
  27 Pd:    0.122113
  28 Br:   -0.490452
  29 P :   -0.116419
  30 H :    0.122096
  31 C :    0.717497
  32 O :   -0.568384
  33 O :   -0.531892
  34 O :   -0.613705
  35 H :    0.092325
  36 H :    0.126692
  37 H :    0.415002
Sum of atomic charges:   -1.0000000

--------------------------------
MULLIKEN REDUCED ORBITAL CHARGES
--------------------------------
  0 C s       :     3.307372  s :     3.307372
      pz      :     1.010615  p :     2.906121
      px      :     0.921327
      py      :     0.974180
      dz2     :     0.004482  d :     0.034411
      dxz     :     0.006383
      dyz     :     0.007971
      dx2y2   :     0.008483
      dxy     :     0.007093
  1 C s       :     3.210633  s :     3.210633
      pz      :     0.894565  p :     2.700071
      px      :     0.922073
      py      :     0.883433
      dz2     :     0.007425  d :     0.043061
      dxz     :     0.007630
      dyz     :     0.007246
      dx2y2   :     0.010047
      dxy     :     0.010713
  2 C s       :     3.256355  s :     3.256355
      pz      :     0.953882  p :     2.948246
      px      :     0.960557
      py      :     1.033806
      dz2     :     0.006756  d :     0.039861
      dxz     :     0.007134
      dyz     :     0.005178
      dx2y2   :     0.008979
      dxy     :     0.011814
  3 C s       :     3.224291  s :     3.224291
      pz      :     1.004216  p :     2.941462
      px      :     1.012484
      py      :     0.924762
      dz2     :     0.005481  d :     0.040138
      dxz     :     0.005692
      dyz     :     0.006961
      dx2y2   :     0.012276
      dxy     :     0.009729
  4 C s       :     3.237538  s :     3.237538
      pz      :     1.012228  p :     2.943247
      px      :     0.946620
      py      :     0.984399
      dz2     :     0.003412  d :     0.041128
      dxz     :     0.007998
      dyz     :     0.007678
      dx2y2   :     0.010336
      dxy     :     0.011704
  5 C s       :     3.246542  s :     3.246542
      pz      :     0.994339  p :     2.954939
      px      :     0.943353
      py      :     1.017247
      dz2     :     0.006069  d :     0.039369
      dxz     :     0.007837
      dyz     :     0.005329
      dx2y2   :     0.009040
      dxy     :     0.011094
  6 H s       :     0.690782  s :     0.690782
  7 H s       :     0.792905  s :     0.792905
  8 H s       :     0.804450  s :     0.804450
  9 H s       :     0.802945  s :     0.802945
 10 H s       :     0.805680  s :     0.805680
 11 C s       :     3.376203  s :     3.376203
      pz      :     1.135635  p :     3.085092
      px      :     0.875956
      py      :     1.073500
      dz2     :     0.013404  d :     0.043678
      dxz     :     0.007656
      dyz     :     0.002987
      dx2y2   :     0.013140
      dxy     :     0.006491
 12 C s       :     3.366425  s :     3.366425
      pz      :     1.051174  p :     3.091982
      px      :     0.930016
      py      :     1.110792
      dz2     :     0.010595  d :     0.044437
      dxz     :     0.008592
      dyz     :     0.006396
      dx2y2   :     0.011621
      dxy     :     0.007233
 13 H s       :     0.786805  s :     0.786805
 14 H s       :     0.687201  s :     0.687201
 15 C s       :     3.159736  s :     3.159736
      pz      :     0.871605  p :     2.664057
      px      :     0.895058
      py      :     0.897395
      dz2     :     0.008811  d :     0.046380
      dxz     :     0.011890
      dyz     :     0.007097
      dx2y2   :     0.009440
      dxy     :     0.009142
 16 H s       :     0.758212  s :     0.758212
 17 H s       :     0.792894  s :     0.792894
 18 C s       :     3.309936  s :     3.309936
      pz      :     0.867302  p :     2.797872
      px      :     0.962538
      py      :     0.968032
      dz2     :     0.008348  d :     0.040686
      dxz     :     0.008741
      dyz     :     0.008237
      dx2y2   :     0.009396
      dxy     :     0.005964
 19 C s       :     3.268514  s :     3.268514
      pz      :     1.058206  p :     2.953228
      px      :     0.929252
      py      :     0.965769
      dz2     :     0.007155  d :     0.040628
      dxz     :     0.008255
      dyz     :     0.008259
      dx2y2   :     0.008155
      dxy     :     0.008804
 20 C s       :     3.245346  s :     3.245346
      pz      :     0.969707  p :     2.948765
      px      :     1.016248
      py      :     0.962811
      dz2     :     0.007503  d :     0.040753
      dxz     :     0.010796
      dyz     :     0.007178
      dx2y2   :     0.008925
      dxy     :     0.006351
 21 C s       :     3.267349  s :     3.267349
      pz      :     1.028450  p :     2.980108
      px      :     0.945165
      py      :     1.006492
      dz2     :     0.007487  d :     0.040785
      dxz     :     0.008393
      dyz     :     0.008565
      dx2y2   :     0.008669
      dxy     :     0.007672
 22 C s       :     3.229041  s :     3.229041
      pz      :     0.956530  p :     2.953129
      px      :     0.989197
      py      :     1.007402
      dz2     :     0.009677  d :     0.040326
      dxz     :     0.008461
      dyz     :     0.007050
      dx2y2   :     0.005276
      dxy     :     0.009863
 23 H s       :     0.736919  s :     0.736919
 24 H s       :     0.817220  s :     0.817220
 25 H s       :     0.827810  s :     0.827810
 26 H s       :     0.821805  s :     0.821805
 27 Pds       :     2.549831  s :     2.549831
      pz      :     2.164618  p :     6.393485
      px      :     2.107375
      py      :     2.121492
      dz2     :     1.749091  d :     8.930548
      dxz     :     1.945463
      dyz     :     1.623141
      dx2y2   :     1.954853
      dxy     :     1.657999
      f0      :     0.000496  f :     0.004023
      f+1     :     0.000415
      f-1     :     0.001056
      f+2     :     0.000406
      f-2     :     0.000800
      f+3     :     0.000496
      f-3     :     0.000352
 28 Brs       :     7.947396  s :     7.947396
      pz      :     5.916260  p :    17.531003
      px      :     5.806353
      py      :     5.808390
      dz2     :     2.001377  d :    10.012054
      dxz     :     2.002109
      dyz     :     2.002209
      dx2y2   :     2.002994
      dxy     :     2.003365
 29 P s       :     5.569408  s :     5.569408
      pz      :     3.160685  p :     9.341337
      px      :     3.008656
      py      :     3.171996
      dz2     :     0.028719  d :     0.205674
      dxz     :     0.082153
      dyz     :     0.023322
      dx2y2   :     0.042188
      dxy     :     0.029292
 30 H s       :     0.877904  s :     0.877904
 31 C s       :     2.797403  s :     2.797403
      pz      :     0.733774  p :     2.307434
      px      :     0.807452
      py      :     0.766209
      dz2     :     0.035957  d :     0.177665
      dxz     :     0.041701
      dyz     :     0.042497
      dx2y2   :     0.034077
      dxy     :     0.023433
 32 O s       :     3.789462  s :     3.789462
      pz      :     1.788627  p :     4.752855
      px      :     1.457934
      py      :     1.506293
      dz2     :     0.003062  d :     0.026067
      dxz     :     0.003351
      dyz     :     0.002876
      dx2y2   :     0.008578
      dxy     :     0.008200
 33 O s       :     3.791600  s :     3.791600
      pz      :     1.388391  p :     4.714813
      px      :     1.596600
      py      :     1.729823
      dz2     :     0.004782  d :     0.025478
      dxz     :     0.008116
      dyz     :     0.005171
      dx2y2   :     0.003968
      dxy     :     0.003441
 34 O s       :     3.795062  s :     3.795062
      pz      :     1.369903  p :     4.788690
      px      :     1.686468
      py      :     1.732319
      dz2     :     0.001849  d :     0.029952
      dxz     :     0.011356
      dyz     :     0.006177
      dx2y2   :     0.006274
      dxy     :     0.004297
 35 H s       :     0.907675  s :     0.907675
[...]
      dx2y2   :     0.023183
      dxy     :     0.015590
 13 H s       :     0.875483  s :     0.875483
 14 H s       :     0.826511  s :     0.826511
 15 C s       :     2.836171  s :     2.836171
      pz      :     1.042875  p :     3.105092
      px      :     1.031570
      py      :     1.030647
      dz2     :     0.020615  d :     0.112761
      dxz     :     0.029006
      dyz     :     0.018467
      dx2y2   :     0.022422
      dxy     :     0.022251
 16 H s       :     0.861289  s :     0.861289
 17 H s       :     0.881003  s :     0.881003
 18 C s       :     2.885195  s :     2.885195
      pz      :     1.006854  p :     3.046879
      px      :     1.051640
      py      :     0.988385
      dz2     :     0.019083  d :     0.093584
      dxz     :     0.022193
      dyz     :     0.018490
      dx2y2   :     0.019878
      dxy     :     0.013941
 19 C s       :     2.881833  s :     2.881833
      pz      :     1.052475  p :     3.147790
      px      :     1.062240
      py      :     1.033075
      dz2     :     0.015686  d :     0.092526
      dxz     :     0.019580
      dyz     :     0.015483
      dx2y2   :     0.019328
      dxy     :     0.022448
 20 C s       :     2.888766  s :     2.888766
      pz      :     1.056382  p :     3.167236
      px      :     1.055623
      py      :     1.055231
      dz2     :     0.017658  d :     0.093185
      dxz     :     0.022667
      dyz     :     0.018479
      dx2y2   :     0.019120
      dxy     :     0.015260
 21 C s       :     2.884816  s :     2.884816
      pz      :     1.054076  p :     3.169605
      px      :     1.071847
      py      :     1.043682
      dz2     :     0.016460  d :     0.093524
      dxz     :     0.020632
      dyz     :     0.016721
      dx2y2   :     0.020496
      dxy     :     0.019216
 22 C s       :     2.884501  s :     2.884501
      pz      :     1.074500  p :     3.190454
      px      :     1.066570
      py      :     1.049384
      dz2     :     0.022321  d :     0.092567
      dxz     :     0.021708
      dyz     :     0.016522
      dx2y2   :     0.012361
      dxy     :     0.019655
 23 H s       :     0.836858  s :     0.836858
 24 H s       :     0.879282  s :     0.879282
 25 H s       :     0.882476  s :     0.882476
 26 H s       :     0.881595  s :     0.881595
 27 Pds       :     2.571318  s :     2.571318
      pz      :     2.342669  p :     6.937448
      px      :     2.264591
      py      :     2.330188
      dz2     :     1.820936  d :     9.312024
      dxz     :     2.001295
      dyz     :     1.736665
      dx2y2   :     2.003087
      dxy     :     1.750041
      f0      :     0.000626  f :     0.005453
      f+1     :     0.000562
      f-1     :     0.001530
      f+2     :     0.000541
      f-2     :     0.001078
      f+3     :     0.000666
      f-3     :     0.000449
 28 Brs       :     7.812320  s :     7.812320
      pz      :     5.888489  p :    17.440664
      px      :     5.773608
      py      :     5.778567
      dz2     :     2.001722  d :    10.016100
      dxz     :     2.003057
      dyz     :     2.002893
      dx2y2   :     2.003609
      dxy     :     2.004819
 29 P s       :     5.220228  s :     5.220228
      pz      :     3.074767  p :     9.113568
      px      :     2.961660
      py      :     3.077141
      dz2     :     0.035138  d :     0.244040
      dxz     :     0.097462
      dyz     :     0.027809
      dx2y2   :     0.049025
      dxy     :     0.034605
 30 H s       :     0.944861  s :     0.944861
 31 C s       :     2.764576  s :     2.764576
      pz      :     0.892550  p :     2.687988
      px      :     0.924275
      py      :     0.871163
      dz2     :     0.079439  d :     0.393430
      dxz     :     0.092664
      dyz     :     0.094767
      dx2y2   :     0.071645
      dxy     :     0.054914
 32 O s       :     3.539518  s :     3.539518
      pz      :     1.755107  p :     4.786494
      px      :     1.498870
      py      :     1.532517
      dz2     :     0.006795  d :     0.047770
      dxz     :     0.005780
      dyz     :     0.004593
      dx2y2   :     0.011555
      dxy     :     0.019046
 33 O s       :     3.434424  s :     3.434424
      pz      :     1.414923  p :     4.697480
      px      :     1.596337
      py      :     1.686219
      dz2     :     0.012309  d :     0.054561
      dxz     :     0.020064
      dyz     :     0.010867
      dx2y2   :     0.006239
      dxy     :     0.005083
 34 O s       :     3.492931  s :     3.492931
      pz      :     1.380769  p :     4.778590
      px      :     1.671599
      py      :     1.726222
      dz2     :     0.006626  d :     0.052509
      dxz     :     0.018537
      dyz     :     0.013234
      dx2y2   :     0.008281
      dxy     :     0.005831
 35 H s       :     0.966567  s :     0.966567
 36 H s       :     0.939206  s :     0.939206
 37 H s       :     0.684799  s :     0.684799


                      *****************************
                      * MAYER POPULATION ANALYSIS *
                      *****************************

  NA   - Mulliken gross atomic population
  ZA   - Total nuclear charge
  QA   - Mulliken gross atomic charge
  VA   - Mayer's total valence
  BVA  - Mayer's bonded valence
  FA   - Mayer's free valence

  ATOM       NA         ZA         QA         VA         BVA        FA
  0 C      6.2479     6.0000    -0.2479     3.7395     3.7395     0.0000
  1 C      5.9538     6.0000     0.0462     3.7556     3.7556    -0.0000
  2 C      6.2445     6.0000    -0.2445     3.8281     3.8281     0.0000
  3 C      6.2059     6.0000    -0.2059     3.8031     3.8031     0.0000
  4 C      6.2219     6.0000    -0.2219     3.8504     3.8504     0.0000
  5 C      6.2409     6.0000    -0.2409     3.8172     3.8172    -0.0000
  6 H      0.6908     1.0000     0.3092     0.8881     0.8881     0.0000
  7 H      0.7929     1.0000     0.2071     0.9156     0.9156    -0.0000
  8 H      0.8044     1.0000     0.1956     0.9228     0.9228    -0.0000
  9 H      0.8029     1.0000     0.1971     0.9175     0.9175     0.0000
 10 H      0.8057     1.0000     0.1943     0.9175     0.9175     0.0000
 11 C      6.5050     6.0000    -0.5050     3.6392     3.6392    -0.0000
 12 C      6.5028     6.0000    -0.5028     3.6946     3.6946    -0.0000
 13 H      0.7868     1.0000     0.2132     0.9114     0.9114     0.0000
 14 H      0.6872     1.0000     0.3128     0.8666     0.8666    -0.0000
 15 C      5.8702     6.0000     0.1298     3.7032     3.7032    -0.0000
 16 H      0.7582     1.0000     0.2418     0.8917     0.8917    -0.0000
 17 H      0.7929     1.0000     0.2071     0.9121     0.9121     0.0000
 18 C      6.1485     6.0000    -0.1485     3.7908     3.7908    -0.0000
 19 C      6.2624     6.0000    -0.2624     3.7973     3.7973    -0.0000
 20 C      6.2349     6.0000    -0.2349     3.8094     3.8094    -0.0000
 21 C      6.2882     6.0000    -0.2882     3.8469     3.8469     0.0000
 22 C      6.2225     6.0000    -0.2225     3.8281     3.8281    -0.0000
 23 H      0.7369     1.0000     0.2631     0.9114     0.9114    -0.0000
 24 H      0.8172     1.0000     0.1828     0.9227     0.9227    -0.0000
 25 H      0.8278     1.0000     0.1722     0.9291     0.9291     0.0000
 26 H      0.8218     1.0000     0.1782     0.9229     0.9229     0.0000
 27 Pd    17.8779    18.0000     0.1221     2.8790     2.8790    -0.0000
 28 Br    35.4905    35.0000    -0.4905     0.8609     0.8609    -0.0000
 29 P     15.1164    15.0000    -0.1164     3.7356     3.7356    -0.0000
 30 H      0.8779     1.0000     0.1221     0.9564     0.9564     0.0000
 31 C      5.2825     6.0000     0.7175     4.2271     4.2271     0.0000
 32 O      8.5684     8.0000    -0.5684     2.0189     2.0189     0.0000
 33 O      8.5319     8.0000    -0.5319     2.0924     2.0924    -0.0000
 34 O      8.6137     8.0000    -0.6137     1.9538     1.9538    -0.0000
 35 H      0.9077     1.0000     0.0923     0.9572     0.9572    -0.0000
 36 H      0.8733     1.0000     0.1267     0.9569     0.9569     0.0000
 37 H      0.5850     1.0000     0.4150     0.8175     0.8175    -0.0000

  Mayer bond orders larger than 0.100000
B(  0-C ,  1-C ) :   1.3478 B(  0-C ,  2-C ) :   1.4462 B(  0-C ,  4-C ) :   0.1064 
B(  0-C ,  6-H ) :   0.8613 B(  1-C ,  5-C ) :   1.4324 B(  1-C , 11-C ) :   0.9568 
B(  2-C ,  3-C ) :   1.4046 B(  2-C ,  7-H ) :   0.9225 B(  3-C ,  4-C ) :   1.4351 
B(  3-C ,  9-H ) :   0.9266 B(  4-C ,  5-C ) :   1.4160 B(  4-C , 10-H ) :   0.9246 
B(  5-C ,  8-H ) :   0.9260 B( 11-C , 12-C ) :   0.9301 B( 11-C , 13-H ) :   0.9256 
B( 11-C , 14-H ) :   0.8728 B( 12-C , 15-C ) :   0.9660 B( 12-C , 16-H ) :   0.8951 
B( 12-C , 17-H ) :   0.9268 B( 15-C , 18-C ) :   1.3457 B( 15-C , 21-C ) :   1.4138 
B( 18-C , 19-C ) :   1.4274 B( 18-C , 27-Pd) :   0.7767 B( 18-C , 28-Br) :   0.1125 
B( 19-C , 20-C ) :   1.3991 B( 19-C , 23-H ) :   0.8810 B( 20-C , 22-C ) :   1.4325 
B( 20-C , 24-H ) :   0.9283 B( 21-C , 22-C ) :   1.4212 B( 21-C , 25-H ) :   0.9277 
B( 22-C , 26-H ) :   0.9302 B( 27-Pd, 28-Br) :   0.5889 B( 27-Pd, 29-P ) :   0.7426 
B( 27-Pd, 33-O ) :   0.4980 B( 29-P , 30-H ) :   0.9277 B( 29-P , 35-H ) :   0.9099 
B( 29-P , 36-H ) :   0.9348 B( 31-C , 32-O ) :   1.7437 B( 31-C , 33-O ) :   1.3824 
B( 31-C , 34-O ) :   1.0803 B( 34-O , 37-H ) :   0.7819 


------------------
HIRSHFELD ANALYSIS
------------------

Total integrated alpha density =    100.000291014
Total integrated beta density  =    100.000291014

  ATOM     CHARGE      SPIN    
   0 C   -0.030881    0.000000
   1 C    0.015772    0.000000
   2 C   -0.051463    0.000000
   3 C   -0.066311    0.000000
   4 C   -0.057254    0.000000
   5 C   -0.064144    0.000000
   6 H    0.046544    0.000000
   7 H    0.031922    0.000000
   8 H    0.034399    0.000000
   9 H    0.034267    0.000000
  10 H    0.033049    0.000000
  11 C   -0.049883    0.000000
  12 C   -0.053268    0.000000
  13 H    0.023751    0.000000
  14 H    0.034978    0.000000
  15 C   -0.028555    0.000000
  16 H    0.007694    0.000000
  17 H    0.017000    0.000000
  18 C   -0.118953    0.000000
  19 C   -0.068473    0.000000
  20 C   -0.064413    0.000000
  21 C   -0.069232    0.000000
  22 C   -0.077017    0.000000
  23 H    0.030080    0.000000
  24 H    0.028103    0.000000
  25 H    0.022932    0.000000
  26 H    0.025634    0.000000
  27 Pd   0.450851    0.000000
  28 Br  -0.542818    0.000000
  29 P    0.118727    0.000000
  30 H    0.008589    0.000000
  31 C    0.243494    0.000000
  32 O   -0.444113    0.000000
  33 O   -0.357366    0.000000
  34 O   -0.244161    0.000000
  35 H   -0.005708    0.000000
  36 H    0.013473    0.000000
  37 H    0.172171    0.000000

  TOTAL  -1.000582    0.000000

-------
TIMINGS
-------

Total SCF time: 0 days 0 hours 29 min 42 sec 

Total time                  ....    1782.502 sec
Sum of individual times     ....    1780.599 sec  ( 99.9%)

Fock matrix formation       ....    1769.609 sec  ( 99.3%)
  Split-RI-J                ....     282.038 sec  ( 15.9% of F)
  Chain of spheres X        ....    1365.937 sec  ( 77.2% of F)
  XC integration            ....     121.529 sec  (  6.9% of F)
    Basis function eval.    ....      35.724 sec  ( 29.4% of XC)
    Density eval.           ....      33.866 sec  ( 27.9% of XC)
    XC-Functional eval.     ....       4.508 sec  (  3.7% of XC)
    XC-Potential eval.      ....      38.802 sec  ( 31.9% of XC)
Diagonalization             ....       0.647 sec  (  0.0%)
Density matrix formation    ....       0.175 sec  (  0.0%)
Population analysis         ....       1.564 sec  (  0.1%)
Initial guess               ....       0.082 sec  (  0.0%)
Orbital Transformation      ....       1.003 sec  (  0.1%)
Orbital Orthonormalization  ....       0.000 sec  (  0.0%)
DIIS solution               ....       0.203 sec  (  0.0%)
Grid generation             ....       7.313 sec  (  0.4%)

Maximum memory used throughout the entire SCF-calculation: 177.5 MB


-------------------------------------------------------------------------------
                          DFT DISPERSION CORRECTION                            
                                                                               
                              DFTD3 V3.1  Rev 1                                
                          USING Becke-Johnson damping                          
-------------------------------------------------------------------------------
The PBEh-3c composite method is recognized
Using three-body term ABC
Active option DFTDOPT                   ...         4   

molecular C6(AA) [au] = 23949.990690 


            DFT-D V3
 parameters
 s6 scaling factor         :     1.0000 
 a1 scaling factor         :     0.4860 
 s8 scaling factor         :     0.0000 
 a2 scaling factor         :     4.5000 
 Damping factor alpha9(ATM):    16.0000 
 ad hoc parameters k1-k3   :    16.0000     1.3333    -4.0000 

 Edisp/kcal,au: -19.249438965519  -0.030675930337 
 E6   /kcal   : -19.434819310 
 E8   /kcal   :  -0.000000000 
 E6(ABC)      :   0.185380344 
 % E8         :   0.000000000 
 % E6(ABC)    :  -0.963042843 

-------------------------   ----------------
Dispersion correction           -0.030675930
-------------------------   ----------------

 ** NOTE ** -> element pd will be treated as ni
------------------   -----------------
gCP correction             0.063668542
------------------   -----------------

-------------------------   --------------------
FINAL SINGLE POINT ENERGY     -3847.757680410523
-------------------------   --------------------

------------------------------------------------------------------------------
                         ORCA SCF GRADIENT CALCULATION
------------------------------------------------------------------------------

 ... reading COSX grid (gridx3)
Gradient of the Kohn-Sham DFT energy:
Kohn-Sham wavefunction type      ... RKS
Hartree-Fock exchange scaling    ...    0.420
Number of operators              ...    1
Number of atoms                  ...   38
Basis set dimensions             ...  385
Integral neglect threshold       ... 2.5e-11
Integral primitive cutoff        ... 2.5e-12
SHARK Integral package           ... ON

Nuc. rep. gradient       (SHARK) ... done (  0.0 sec)
HCore & Overlap gradient (SHARK) ... done (  1.9 sec)
ECP gradient             (SHARK) ... done (  2.6 sec)
RI-J gradient            (SHARK) ... done (  9.7 sec)
COSX-gradient                    ... done ( 85.8 sec)
Exchange-correlation gradient    ... done
Dispersion correction            ... done
gCP correction                   ... done

------------------
CARTESIAN GRADIENT
------------------

   1   C   :    0.031465396   -0.102065688   -0.080950940
   2   C   :    0.028554419    0.049621708    0.025204553
   3   C   :   -0.022254550    0.028308607    0.040613877
   4   C   :   -0.010381142   -0.009102114   -0.008223883
   5   C   :    0.012247019    0.008927617   -0.004124759
   6   C   :   -0.018081583    0.011440939    0.017797114
   7   H   :   -0.017816644    0.010458935    0.010568287
   8   H   :    0.003808245   -0.003669468   -0.002736793
   9   H   :    0.001062292    0.003236296    0.004600329
  10   H   :    0.002588047    0.001946195   -0.001244061
  11   H   :    0.001054797   -0.001662836   -0.002512870
  12   C   :   -0.011408231   -0.004521078   -0.004128069
  13   C   :    0.001072804    0.000388360   -0.003012266
  14   H   :    0.001418236    0.003747789   -0.002410808
  15   H   :   -0.002751606    0.005350624    0.004384826
  16   C   :   -0.000416357    0.004186577    0.005562706
  17   H   :    0.001989627    0.001098224    0.000829189
  18   H   :    0.000055266    0.000475986    0.001999432
  19   C   :    0.004023633    0.005385962    0.007231819
  20   C   :    0.003524906   -0.001971573   -0.003197246
  21   C   :   -0.004832794    0.002588117    0.002615394
  22   C   :   -0.000745949   -0.007159486   -0.001883134
  23   C   :    0.001741610   -0.001809097   -0.000630130
  24   H   :    0.000969905    0.000384620    0.002518395
  25   H   :    0.001152189   -0.000381687   -0.000694970
  26   H   :    0.000194315   -0.001105021    0.001689563
  27   H   :   -0.002571394    0.001337498   -0.002222322
  28   Pd  :   -0.005544238    0.013146068   -0.006531924
  29   Br  :   -0.000280491   -0.001448070   -0.001898763
  30   P   :    0.004967990   -0.004922207    0.007912522
  31   H   :    0.000045336    0.001407039   -0.002564282
  32   C   :   -0.046249721    0.036304104    0.000644473
  33   O   :    0.036710897   -0.033173293   -0.003555154
  34   O   :    0.002760630   -0.013437354    0.003252524
  35   O   :    0.012041510   -0.006790294   -0.005753853
  36   H   :   -0.003743722   -0.001822009   -0.005224309
  37   H   :    0.000372743   -0.000402984    0.000213056
  38   H   :   -0.006820701    0.005439572    0.005260343

Difference to translation invariance:
           :   -0.0000773123   -0.0002634249   -0.0006021336

Difference to rotation invariance:
           :    0.0006512584   -0.0049895563   -0.0007113663

Norm of the cartesian gradient     ...    0.1848079849
RMS gradient                       ...    0.0173088536
MAX gradient                       ...    0.1020656884

-------
TIMINGS
-------

Total SCF gradient time            ...      113.761 sec

One electron gradient       ....       4.530 sec  (  4.0%)
RI-J Coulomb gradient       ....       9.666 sec  (  8.5%)
COSX gradient               ....      85.789 sec  ( 75.4%)
XC gradient                 ....      11.897 sec  ( 10.5%)

Maximum memory used throughout the entire SCFGRAD-calculation: 143.1 MB

                            ***************************************
                            *     ORCA property calculations      *
                            ***************************************

                                    ---------------------
                                    Active property flags
                                    ---------------------
   (+) Dipole Moment


------------------------------------------------------------------------------
                       ORCA ELECTRIC PROPERTIES CALCULATION
------------------------------------------------------------------------------

Dipole Moment Calculation                       ... on
Quadrupole Moment Calculation                   ... off
Polarizability Calculation                      ... off
GBWName                                         ... 1_1_orca.gbw
Electron density                                ... 1_1_orca.scfp
The origin for moment calculation is the CENTER OF MASS  = ( 0.018760, -1.875546 -1.520875)

-------------
DIPOLE MOMENT
-------------
                                X             Y             Z
Electronic contribution:     26.36459     -79.00295     -56.68849
Nuclear contribution   :    -26.04459      79.62933      59.58765
                        -----------------------------------------
Total Dipole Moment    :      0.32000       0.62639       2.89916
                        -----------------------------------------
Magnitude (a.u.)       :      2.98327
Magnitude (Debye)      :      7.58287



--------------------
Rotational spectrum 
--------------------
 
Rotational constants in cm-1:     0.007291     0.005497     0.004045 
Rotational constants in MHz :   218.588425   164.799503   121.276558 

 Dipole components along the rotational axes: 
x,y,z [a.u.] :     1.846097     1.607944     1.704796 
x,y,z [Debye]:     4.692407     4.087070     4.333247 

 

Timings for individual modules:

Sum of individual times         ...     1897.545 sec (=  31.626 min)
GTO integral calculation        ...        1.210 sec (=   0.020 min)   0.1 %
SCF iterations                  ...     1782.534 sec (=  29.709 min)  93.9 %
SCF Gradient evaluation         ...      113.800 sec (=   1.897 min)   6.0 %
                             ****ORCA TERMINATED NORMALLY****
TOTAL RUN TIME: 0 days 0 hours 31 minutes 38 seconds 142 msec
