27
	Energy:      54.9645055
Pd        -2.67142        6.55436       -0.94657
Cl        -3.66107        4.71294       -2.00815
Cl        -0.76181        4.59155        0.44356
Cl        -4.34429        6.41587        0.60783
N         -1.86103        8.12011        0.00918
C         -2.22854        8.59317        1.30803
C         -1.63142        9.67066        1.83902
C         -0.55481       10.41717        1.09431
C         -0.77734        8.68880       -0.68237
C         -0.12154        9.82687       -0.21638
H         -0.05689       11.30235        1.54068
H         -2.97393        8.09594        1.91177
H         -1.93102       10.01504        2.82329
C         -0.38131        8.06475       -1.84753
C          0.91398       10.37896       -0.98691
C          1.28550        9.77640       -2.20664
C          0.64588        8.59548       -2.63523
H          1.42313       11.27259       -0.64923
H          2.06932       10.22354       -2.80343
C         -1.07465        6.91842       -2.21304
C          0.96533        7.93834       -3.83435
C         -0.72552        6.22850       -3.36625
C          0.28545        6.75420       -4.19036
H          1.72380        8.33956       -4.49352
H          0.51629        6.25991       -5.12271
H         -1.01664        4.46185       -0.90069
H         -1.27290        5.34371       -3.64811
