
                                 *****************
                                 * O   R   C   A *
                                 *****************

                                            #,                                       
                                            ###                                      
                                            ####                                     
                                            #####                                    
                                            ######                                   
                                           ########,                                 
                                     ,,################,,,,,                         
                               ,,#################################,,                 
                          ,,##########################################,,             
                       ,#########################################, ''#####,          
                    ,#############################################,,   '####,        
                  ,##################################################,,,,####,       
                ,###########''''           ''''###############################       
              ,#####''   ,,,,##########,,,,          '''####'''          '####       
            ,##' ,,,,###########################,,,                        '##       
           ' ,,###''''                  '''############,,,                           
         ,,##''                                '''############,,,,        ,,,,,,###''
      ,#''                                            '''#######################'''  
     '                                                          ''''####''''         
             ,#######,   #######,   ,#######,      ##                                
            ,#'     '#,  ##    ##  ,#'     '#,    #''#        ######   ,####,        
            ##       ##  ##   ,#'  ##            #'  '#       #        #'  '#        
            ##       ##  #######   ##           ,######,      #####,   #    #        
            '#,     ,#'  ##    ##  '#,     ,#' ,#      #,         ##   #,  ,#        
             '#######'   ##     ##  '#######'  #'      '#     #####' # '####'        



                  #######################################################
                  #                        -***-                        #
                  #          Department of theory and spectroscopy      #
                  #    Directorship and core code : Frank Neese         #
                  #        Max Planck Institute fuer Kohlenforschung    #
                  #                Kaiser Wilhelm Platz 1               #
                  #                 D-45470 Muelheim/Ruhr               #
                  #                      Germany                        #
                  #                                                     #
                  #                  All rights reserved                #
                  #                        -***-                        #
                  #######################################################


                         Program Version 5.0.3 -  RELEASE  -


 With contributions from (in alphabetic order):
   Daniel Aravena         : Magnetic Suceptibility
   Michael Atanasov       : Ab Initio Ligand Field Theory (pilot matlab implementation)
   Alexander A. Auer      : GIAO ZORA, VPT2 properties, NMR spectrum
   Ute Becker             : Parallelization
   Giovanni Bistoni       : ED, misc. LED, open-shell LED, HFLD
   Martin Brehm           : Molecular dynamics
   Dmytro Bykov           : SCF Hessian
   Vijay G. Chilkuri      : MRCI spin determinant printing, contributions to CSF-ICE
   Dipayan Datta          : RHF DLPNO-CCSD density
   Achintya Kumar Dutta   : EOM-CC, STEOM-CC
   Dmitry Ganyushin       : Spin-Orbit,Spin-Spin,Magnetic field MRCI
   Miquel Garcia          : C-PCM and meta-GGA Hessian, CC/C-PCM, Gaussian charge scheme
   Yang Guo               : DLPNO-NEVPT2, F12-NEVPT2, CIM, IAO-localization
   Andreas Hansen         : Spin unrestricted coupled pair/coupled cluster methods
   Benjamin Helmich-Paris : MC-RPA, TRAH-SCF, COSX integrals
   Lee Huntington         : MR-EOM, pCC
   Robert Izsak           : Overlap fitted RIJCOSX, COSX-SCS-MP3, EOM
   Marcus Kettner         : VPT2
   Christian Kollmar      : KDIIS, OOCD, Brueckner-CCSD(T), CCSD density, CASPT2, CASPT2-K
   Simone Kossmann        : Meta GGA functionals, TD-DFT gradient, OOMP2, MP2 Hessian
   Martin Krupicka        : Initial AUTO-CI
   Lucas Lang             : DCDCAS
   Marvin Lechner         : AUTO-CI (C++ implementation), FIC-MRCC
   Dagmar Lenk            : GEPOL surface, SMD
   Dimitrios Liakos       : Extrapolation schemes; Compound Job, initial MDCI parallelization
   Dimitrios Manganas     : Further ROCIS development; embedding schemes
   Dimitrios Pantazis     : SARC Basis sets
   Anastasios Papadopoulos: AUTO-CI, single reference methods and gradients
   Taras Petrenko         : DFT Hessian,TD-DFT gradient, ASA, ECA, R-Raman, ABS, FL, XAS/XES, NRVS
   Peter Pinski           : DLPNO-MP2, DLPNO-MP2 Gradient
   Christoph Reimann      : Effective Core Potentials
   Marius Retegan         : Local ZFS, SOC
   Christoph Riplinger    : Optimizer, TS searches, QM/MM, DLPNO-CCSD(T), (RO)-DLPNO pert. Triples
   Tobias Risthaus        : Range-separated hybrids, TD-DFT gradient, RPA, STAB
   Michael Roemelt        : Original ROCIS implementation
   Masaaki Saitow         : Open-shell DLPNO-CCSD energy and density
   Barbara Sandhoefer     : DKH picture change effects
   Avijit Sen             : IP-ROCIS
   Kantharuban Sivalingam : CASSCF convergence, NEVPT2, FIC-MRCI
   Bernardo de Souza      : ESD, SOC TD-DFT
   Georgi Stoychev        : AutoAux, RI-MP2 NMR, DLPNO-MP2 response
   Willem Van den Heuvel  : Paramagnetic NMR
   Boris Wezisla          : Elementary symmetry handling
   Frank Wennmohs         : Technical directorship


 We gratefully acknowledge several colleagues who have allowed us to
 interface, adapt or use parts of their codes:
   Stefan Grimme, W. Hujo, H. Kruse, P. Pracht,  : VdW corrections, initial TS optimization,
                  C. Bannwarth, S. Ehlert          DFT functionals, gCP, sTDA/sTD-DF
   Ed Valeev, F. Pavosevic, A. Kumar             : LibInt (2-el integral package), F12 methods
   Garnet Chan, S. Sharma, J. Yang, R. Olivares  : DMRG
   Ulf Ekstrom                                   : XCFun DFT Library
   Mihaly Kallay                                 : mrcc  (arbitrary order and MRCC methods)
   Jiri Pittner, Ondrej Demel                    : Mk-CCSD
   Frank Weinhold                                : gennbo (NPA and NBO analysis)
   Christopher J. Cramer and Donald G. Truhlar   : smd solvation model
   Lars Goerigk                                  : TD-DFT with DH, B97 family of functionals
   V. Asgeirsson, H. Jonsson                     : NEB implementation
   FAccTs GmbH                                   : IRC, NEB, NEB-TS, DLPNO-Multilevel, CI-OPT
                                                   MM, QMMM, 2- and 3-layer-ONIOM, Crystal-QMMM,
                                                   LR-CPCM, SF, NACMEs, symmetry and pop. for TD-DFT,
                                                   nearIR, NL-DFT gradient (VV10), updates on ESD,
                                                   ML-optimized integration grids
   S Lehtola, MJT Oliveira, MAL Marques          : LibXC Library
   Liviu Ungur et al                             : ANISO software


 Your calculation uses the libint2 library for the computation of 2-el integrals
 For citations please refer to: http://libint.valeyev.net

 Your ORCA version has been built with support for libXC version: 5.1.0
 For citations please refer to: https://tddft.org/programs/libxc/

 This ORCA versions uses:
   CBLAS   interface :  Fast vector & matrix operations
   LAPACKE interface :  Fast linear algebra routines
   SCALAPACK package :  Parallel linear algebra routines
   Shared memory     :  Shared parallel matrices
   BLAS/LAPACK       :  OpenBLAS 0.3.15  USE64BITINT DYNAMIC_ARCH NO_AFFINITY SkylakeX SINGLE_THREADED
        Core in use  :  SkylakeX
   Copyright (c) 2011-2014, The OpenBLAS Project


Your calculation utilizes the geometrical counterpoise correction gCP
Please cite in your paper:
H.Kruse, S. Grimme J.Chem.Phys., 136, (2012), 154101 
   

Your calculation utilizes the atom-pairwise dispersion correction
with the Becke-Johnson damping scheme (D3BJ)
Cite in your paper:
S.Grimme, S.Ehrlich, L.Goerigk, J Comput Chem, (2011), 32, 1456–1465 
S.Grimme, J.Antony, S.Ehrlich and H.Krieg, J.Chem.Phys., 132, (2010), 154104 
   

Your calculation employs the composite approach PBEh-3c.
Please cite in your paper:
S. Grimme, J. G. Brandenburg, C. Bannwarth, A. Hansen J.Chem.Phys., 143, (2015), 054107 
   

================================================================================

----- Orbital basis set information -----
Your calculation utilizes the basis: def2-mSVP

----- AuxJ basis set information -----
Your calculation utilizes the auxiliary basis: def2/J
   F. Weigend, Phys. Chem. Chem. Phys. 8, 1057 (2006).

================================================================================
                                        WARNINGS
                       Please study these warnings very carefully!
================================================================================


INFO   : the flag for use of the SHARK integral package has been found!

================================================================================
                                       INPUT FILE
================================================================================
NAME = 8_8_orca.inp
|  1> ! EnGrad PBEh-3c
|  2> %output 
|  3> xyzfile=True 
|  4> end 
|  5> %scf 
|  6> maxiter 250 
|  7> end
|  8> %output
|  9> Print[P_Hirshfeld] = 1
| 10> end
| 11> % maxcore
| 12> 4000
| 13> *xyz 1 1
| 14> Sc   1.20596581  -0.39712103  -1.91794201 
| 15> C    0.41099993  -0.62363033   0.25089450 
| 16> N   -0.45303487  -1.37307497   0.95366667 
| 17> C   -0.80360716  -0.75133845   2.11413740 
| 18> C   -0.14375341   0.42329843   2.14968838 
| 19> N    0.59962573   0.47861124   1.00925755 
| 20> C    1.42592980   1.59870849   0.60562724 
| 21> H    1.49991167   2.29299256   1.43993709 
| 22> H    1.00430635   2.13534166  -0.24022796 
| 23> H    2.43499429   1.27050168   0.37024138 
| 24> C   -0.97324094  -2.66498087   0.55024763 
| 25> H   -0.57596984  -2.94703998  -0.41832569 
| 26> H   -2.05774441  -2.62860137   0.47669538 
| 27> H   -0.68618423  -3.41690097   1.28061166 
| 28> H   -1.47508217  -1.19514263   2.82358198 
| 29> H   -0.13857310   1.20142615   2.89100909 
| 30> C   -0.19347817   1.52449777  -2.73280584 
| 31> H   -0.80200015   1.47065996  -3.65389426 
| 32> H    0.38241362   2.44205132  -2.82666179 
| 33> H   -0.89638498   1.62800341  -1.90438055 
| 34> H    0.24155293  -0.46029693  -3.21980546 
| 35> *
| 36> 
| 37>                          ****END OF INPUT****
================================================================================

                     *******************************
                     * Energy+Gradient Calculation *
                     *******************************

---------------------------------
CARTESIAN COORDINATES (ANGSTROEM)
---------------------------------
  Sc     1.205966   -0.397121   -1.917942
  C      0.411000   -0.623630    0.250895
  N     -0.453035   -1.373075    0.953667
  C     -0.803607   -0.751338    2.114137
  C     -0.143753    0.423298    2.149688
  N      0.599626    0.478611    1.009258
  C      1.425930    1.598708    0.605627
  H      1.499912    2.292993    1.439937
  H      1.004306    2.135342   -0.240228
  H      2.434994    1.270502    0.370241
  C     -0.973241   -2.664981    0.550248
  H     -0.575970   -2.947040   -0.418326
  H     -2.057744   -2.628601    0.476695
  H     -0.686184   -3.416901    1.280612
  H     -1.475082   -1.195143    2.823582
  H     -0.138573    1.201426    2.891009
  C     -0.193478    1.524498   -2.732806
  H     -0.802000    1.470660   -3.653894
  H      0.382414    2.442051   -2.826662
  H     -0.896385    1.628003   -1.904381
  H      0.241553   -0.460297   -3.219805

----------------------------
CARTESIAN COORDINATES (A.U.)
----------------------------
  NO LB      ZA    FRAG     MASS         X           Y           Z
   0 Sc   21.0000    0    44.960    2.278945   -0.750450   -3.624385
   1 C     6.0000    0    12.011    0.776677   -1.178491    0.474122
   2 N     7.0000    0    14.007   -0.856112   -2.594736    1.802169
   3 C     6.0000    0    12.011   -1.518597   -1.419824    3.995141
   4 C     6.0000    0    12.011   -0.271655    0.799918    4.062322
   5 N     7.0000    0    14.007    1.133128    0.904444    1.907220
   6 C     6.0000    0    12.011    2.694617    3.021121    1.144470
   7 H     1.0000    0     1.008    2.834422    4.333128    2.721087
   8 H     1.0000    0     1.008    1.897864    4.035211   -0.453965
   9 H     1.0000    0     1.008    4.601472    2.400900    0.699655
  10 C     6.0000    0    12.011   -1.839159   -5.036084    1.039817
  11 H     1.0000    0     1.008   -1.088425   -5.569098   -0.790521
  12 H     1.0000    0     1.008   -3.888573   -4.967337    0.900824
  13 H     1.0000    0     1.008   -1.296700   -6.457007    2.420005
  14 H     1.0000    0     1.008   -2.787501   -2.258492    5.335797
  15 H     1.0000    0     1.008   -0.261865    2.270366    5.463215
  16 C     6.0000    0    12.011   -0.365621    2.880883   -5.164255
  17 H     1.0000    0     1.008   -1.515561    2.779145   -6.904859
  18 H     1.0000    0     1.008    0.722657    4.614808   -5.341617
  19 H     1.0000    0     1.008   -1.693922    3.076481   -3.598758
  20 H     1.0000    0     1.008    0.456469   -0.869835   -6.084551

--------------------------------
INTERNAL COORDINATES (ANGSTROEM)
--------------------------------
 Sc     0   0   0     0.000000000000     0.00000000     0.00000000
 C      1   0   0     2.321018961676     0.00000000     0.00000000
 N      2   1   0     1.342427698970   139.82839901     0.00000000
 C      3   2   1     1.362405793442   110.90156958   199.82286108
 C      4   3   2     1.347754667372   107.11079125   359.94168860
 N      2   1   3     1.351159016055   113.39332234   200.42344164
 C      6   2   1     1.449245904844   123.62640670   349.25861718
 H      7   6   2     1.087923072993   108.56746950   186.53721980
 H      7   6   2     1.086836009755   112.15956691    67.34322888
 H      7   6   2     1.086893443810   110.87096930   304.04488008
 C      3   2   1     1.449959355139   125.63961792    19.10148194
 H     11   3   2     1.084212130833   110.41923020   359.23982745
 H     11   3   2     1.087603410229   110.28946092   239.60569809
 H     11   3   2     1.086838078031   109.55408694   119.14893696
 H      4   3   2     1.072917728128   122.37755594   180.95430848
 H      5   4   3     1.074739958929   130.66010678   180.43280504
 C      1   2   3     2.512979372600   100.77126875    98.65993411
 H     17   1   2     1.105260778001   122.65544890   234.13681387
 H     17   1   2     1.087365996460   112.22896879   107.51651451
 H     17   1   2     1.091366053241   100.66423424   351.66896550
 H      1   2   3     1.621398112709   122.87131108    42.57457912

---------------------------
INTERNAL COORDINATES (A.U.)
---------------------------
 Sc     0   0   0     0.000000000000     0.00000000     0.00000000
 C      1   0   0     4.386090189206     0.00000000     0.00000000
 N      2   1   0     2.536820705644   139.82839901     0.00000000
 C      3   2   1     2.574573832873   110.90156958   199.82286108
 C      4   3   2     2.546887217048   107.11079125   359.94168860
 N      2   1   3     2.553320503723   113.39332234   200.42344164
 C      6   2   1     2.738677860862   123.62640670   349.25861718
 H      7   6   2     2.055876662732   108.56746950   186.53721980
 H      7   6   2     2.053822410922   112.15956691    67.34322888
 H      7   6   2     2.053930945556   110.87096930   304.04488008
 C      3   2   1     2.740026086529   125.63961792    19.10148194
 H     11   3   2     2.048863998349   110.41923020   359.23982745
 H     11   3   2     2.055272587652   110.28946092   239.60569809
 H     11   3   2     2.053826319396   109.55408694   119.14893696
 H      4   3   2     2.027520670391   122.37755594   180.95430848
 H      5   4   3     2.030964187558   130.66010678   180.43280504
 C      1   2   3     4.748842794408   100.77126875    98.65993411
 H     17   1   2     2.088640176986   122.65544890   234.13681387
 H     17   1   2     2.054823940648   112.22896879   107.51651451
 H     17   1   2     2.062382952485   100.66423424   351.66896550
 H      1   2   3     3.063998387077   122.87131108    42.57457912

---------------------
BASIS SET INFORMATION
---------------------
There are 4 groups of distinct atoms

 Group   1 Type Sc  : 14s9p5d1f contracted to 5s3p2d1f pattern {63311/531/41/1}
 Group   2 Type C   : 8s4p1d contracted to 4s2p1d pattern {5111/31/1}
 Group   3 Type N   : 8s4p1d contracted to 4s2p1d pattern {5111/31/1}
 Group   4 Type H   : 4s contracted to 2s pattern {31}

Atom   0Sc   basis set group =>   1
Atom   1C    basis set group =>   2
Atom   2N    basis set group =>   3
Atom   3C    basis set group =>   2
Atom   4C    basis set group =>   2
Atom   5N    basis set group =>   3
Atom   6C    basis set group =>   2
Atom   7H    basis set group =>   4
Atom   8H    basis set group =>   4
Atom   9H    basis set group =>   4
Atom  10C    basis set group =>   2
Atom  11H    basis set group =>   4
Atom  12H    basis set group =>   4
Atom  13H    basis set group =>   4
Atom  14H    basis set group =>   4
Atom  15H    basis set group =>   4
Atom  16C    basis set group =>   2
Atom  17H    basis set group =>   4
Atom  18H    basis set group =>   4
Atom  19H    basis set group =>   4
Atom  20H    basis set group =>   4
---------------------------------
AUXILIARY/J BASIS SET INFORMATION
---------------------------------
There are 4 groups of distinct atoms

 Group   1 Type Sc  : 19s5p5d3f3g contracted to 8s5p5d2f3g pattern {121111111/11111/11111/21/111}
 Group   2 Type C   : 12s5p4d2f1g contracted to 6s4p3d1f1g pattern {711111/2111/211/2/1}
 Group   3 Type N   : 12s5p4d2f1g contracted to 6s4p3d1f1g pattern {711111/2111/211/2/1}
 Group   4 Type H   : 5s2p1d contracted to 3s1p1d pattern {311/2/1}

Atom   0Sc   basis set group =>   1
Atom   1C    basis set group =>   2
Atom   2N    basis set group =>   3
Atom   3C    basis set group =>   2
Atom   4C    basis set group =>   2
Atom   5N    basis set group =>   3
Atom   6C    basis set group =>   2
Atom   7H    basis set group =>   4
Atom   8H    basis set group =>   4
Atom   9H    basis set group =>   4
Atom  10C    basis set group =>   2
Atom  11H    basis set group =>   4
Atom  12H    basis set group =>   4
Atom  13H    basis set group =>   4
Atom  14H    basis set group =>   4
Atom  15H    basis set group =>   4
Atom  16C    basis set group =>   2
Atom  17H    basis set group =>   4
Atom  18H    basis set group =>   4
Atom  19H    basis set group =>   4
Atom  20H    basis set group =>   4
------------------------------------------------------------------------------
                           ORCA GTO INTEGRAL CALCULATION
                           -- RI-GTO INTEGRALS CHOSEN --
------------------------------------------------------------------------------
------------------------------------------------------------------------------
                   ___                                                        
                  /   \      - P O W E R E D   B Y -                         
                 /     \                                                     
                 |  |  |   _    _      __       _____    __    __             
                 |  |  |  | |  | |    /  \     |  _  \  |  |  /  |          
                  \  \/   | |  | |   /    \    | | | |  |  | /  /          
                 / \  \   | |__| |  /  /\  \   | |_| |  |  |/  /          
                |  |  |   |  __  | /  /__\  \  |    /   |      \           
                |  |  |   | |  | | |   __   |  |    \   |  |\   \          
                \     /   | |  | | |  |  |  |  | |\  \  |  | \   \       
                 \___/    |_|  |_| |__|  |__|  |_| \__\ |__|  \__/        
                                                                              
                      - O R C A' S   B I G   F R I E N D -                    
                                      &                                       
                       - I N T E G R A L  F E E D E R -                       
                                                                              
 v1 FN, 2020, v2 2021                                                         
------------------------------------------------------------------------------


Reading SHARK input file 8_8_orca.SHARKINP.tmp ... ok
----------------------
SHARK INTEGRAL PACKAGE
----------------------

Number of atoms                             ...     21
Number of basis functions                   ...    175
Number of shells                            ...     91
Maximum angular momentum                    ...      3
Integral batch strategy                     ... SHARK/LIBINT Hybrid
RI-J (if used) integral strategy            ... SPLIT-RIJ (Revised 2003 algorithm where possible)
Printlevel                                  ...      1
Contraction scheme used                     ... SEGMENTED contraction
Coulomb Range Separation                    ... NOT USED
Exchange Range Separation                   ... NOT USED
Finite Nucleus Model                        ... NOT USED
Auxiliary Coulomb fitting basis             ... AVAILABLE
   # of basis functions in Aux-J            ...    613
   # of shells in Aux-J                     ...    203
   Maximum angular momentum in Aux-J        ...      4
Auxiliary J/K fitting basis                 ... NOT available
Auxiliary Correlation fitting basis         ... NOT available
Auxiliary 'external' fitting basis          ... NOT available
Integral threshold                          ...     2.500000e-11
Primitive cut-off                           ...     2.500000e-12
Primitive pair pre-selection threshold      ...     2.500000e-12

Calculating pre-screening integrals         ... done (  0.1 sec) Dimension = 91
Organizing shell pair data                  ... done (  0.0 sec)
Shell pair information
Total number of shell pairs                 ...      4186
Shell pairs after pre-screening             ...      3656
Total number of primitive shell pairs       ...     16651
Primitive shell pairs kept                  ...      9809
          la=0 lb=0:   1544 shell pairs
          la=1 lb=0:   1075 shell pairs
          la=1 lb=1:    186 shell pairs
          la=2 lb=0:    526 shell pairs
          la=2 lb=1:    183 shell pairs
          la=2 lb=2:     51 shell pairs
          la=3 lb=0:     61 shell pairs
          la=3 lb=1:     19 shell pairs
          la=3 lb=2:     10 shell pairs
          la=3 lb=3:      1 shell pairs

Calculating one electron integrals          ... done (  0.0 sec)
Calculating RI/J V-Matrix + Cholesky decomp.... done (  0.0 sec)
Calculating Nuclear repulsion               ... done (  0.0 sec) ENN=    579.230352777865 Eh

SHARK setup successfully completed in   0.3 seconds

Maximum memory used throughout the entire GTOINT-calculation: 33.2 MB
-------------------------------------------------------------------------------
                                 ORCA SCF
-------------------------------------------------------------------------------

------------
SCF SETTINGS
------------
Hamiltonian:
 Density Functional     Method          .... DFT(GTOs)
 Exchange Functional    Exchange        .... PBE
   PBE kappa parameter   XKappa         ....  1.024500
   PBE mue parameter    XMuePBE         ....  0.123457
 Correlation Functional Correlation     .... PBE
   PBE beta parameter  CBetaPBE         ....  0.030000
 LDA part of GGA corr.  LDAOpt          .... PW91-LDA
 Gradients option       PostSCFGGA      .... off
 Hybrid DFT is turned on
   Fraction HF Exchange ScalHFX         ....  0.420000
   Scaling of DF-GGA-X  ScalDFX         ....  0.580000
   Scaling of DF-GGA-C  ScalDFC         ....  1.000000
   Scaling of DF-LDA-C  ScalLDAC        ....  1.000000
   Perturbative correction              ....  0.000000
   Density functional embedding theory  .... OFF
 RI-approximation to the Coulomb term is turned on
   Number of AuxJ basis functions       .... 613
   RIJ-ON(X) (HFX calculated with O(N)) .... on
   Number of AuxJ basis functions       .... 613
   RIJ-COSX (HFX calculated with COS-X)).... on


General Settings:
 Integral files         IntName         .... 8_8_orca
 Hartree-Fock type      HFTyp           .... RHF
 Total Charge           Charge          ....    1
 Multiplicity           Mult            ....    1
 Number of Electrons    NEL             ....   82
 Basis Dimension        Dim             ....  175
 Nuclear Repulsion      ENuc            ....    579.2303527779 Eh

Convergence Acceleration:
 DIIS                   CNVDIIS         .... on
   Start iteration      DIISMaxIt       ....    12
   Startup error        DIISStart       ....  0.200000
   # of expansion vecs  DIISMaxEq       ....     5
   Bias factor          DIISBfac        ....   1.050
   Max. coefficient     DIISMaxC        ....  10.000
 Trust-Rad. Augm. Hess. CNVTRAH         .... auto
   Auto Start mean grad. ratio tolernc. ....  1.125000
   Auto Start start iteration           ....    20
   Auto Start num. interpolation iter.  ....    10
   Max. Number of Micro iterations      ....    16
   Max. Number of Macro iterations      .... Maxiter - #DIIS iter
   Number of Davidson start vectors     ....     2
   Converg. threshold I  (grad. norm)   ....   1.000e-05
   Converg. threshold II (energy diff.) ....   1.000e-08
   Grad. Scal. Fac. for Micro threshold ....   0.100
   Minimum threshold for Micro iter.    ....   0.010
   NR start threshold (gradient norm)   ....   0.001
   Initial trust radius                 ....   0.400
   Minimum AH scaling param. (alpha)    ....   1.000
   Maximum AH scaling param. (alpha)    .... 1000.000
   Orbital update algorithm             .... Taylor
   White noise on init. David. guess    .... on
   Maximum white noise                  ....   0.010
   Quad. conv. algorithm                .... NR
   COSX micro iterations for RIJONX calc.... off
 SOSCF                  CNVSOSCF        .... off
 Level Shifting         CNVShift        .... on
   Level shift para.    LevelShift      ....    0.2500
   Turn off err/grad.   ShiftErr        ....    0.0010
 Zerner damping         CNVZerner       .... off
 Static damping         CNVDamp         .... on
   Fraction old density DampFac         ....    0.7000
   Max. Damping (<1)    DampMax         ....    0.9800
   Min. Damping (>=0)   DampMin         ....    0.0000
   Turn off err/grad.   DampErr         ....    0.1000
 Fernandez-Rico         CNVRico         .... off

SCF Procedure:
 Maximum # iterations   MaxIter         ....   250
 SCF integral mode      SCFMode         .... Direct
   Integral package                     .... SHARK and LIBINT hybrid scheme
 Reset frequency        DirectResetFreq ....    20
 Integral Threshold     Thresh          ....  2.500e-11 Eh
 Primitive CutOff       TCut            ....  2.500e-12 Eh

Convergence Tolerance:
 Convergence Check Mode ConvCheckMode   .... Total+1el-Energy
 Convergence forced     ConvForced      .... 0
 Energy Change          TolE            ....  1.000e-08 Eh
 1-El. energy change                    ....  1.000e-05 Eh
 DIIS Error             TolErr          ....  5.000e-07


Diagonalization of the overlap matrix:
Smallest eigenvalue                        ... 1.395e-03
Time for diagonalization                   ...    0.010 sec
Threshold for overlap eigenvalues          ... 1.000e-08
Number of eigenvalues below threshold      ... 0
Time for construction of square roots      ...    0.002 sec
Total time needed                          ...    0.013 sec

--------------------------------
INITIAL GUESS: MINIMAL BASIS EHT
--------------------------------
The minimal basis has 70 functions
EHT matrix was diagonalized
Basis set overlap was calculated now projecting the orbitals
Using GuessMode=FMatrix for the initial guess
C*T matrix was formed
Effective Fockian was calculated
Effective Fockian was diagonalized
Initial density was built
                      ------------------
                      INITIAL GUESS DONE
                      ------------------
-------------------
DFT GRID GENERATION
-------------------

General Integration Accuracy     IntAcc      ... 4.159
Radial Grid Type                 RadialGrid  ... OptM3 with GC (2021)
Angular Grid (max. ang.)         AngularGrid ... 3 (Lebedev-194)
Angular grid pruning method      GridPruning ... 4 (adaptive)
Weight generation scheme         WeightScheme... Becke
Basis function cutoff            BFCut       ... 1.0000e-11
Integration weight cutoff        WCut        ... 1.0000e-14
Angular grids for H and He will be reduced by one unit
Partially contracted basis set               ... off
Rotationally invariant grid construction     ... off

Total number of grid points                  ...    48230
Total number of batches                      ...      765
Average number of points per batch           ...       63
Average number of grid points per atom       ...     2297
Time for grid setup =    0.547 sec

--------------------
COSX GRID GENERATION
--------------------

GRIDX 1
-------
General Integration Accuracy     IntAcc      ... 3.816
Radial Grid Type                 RadialGrid  ... OptM3 with GC (2021)
Angular Grid (max. ang.)         AngularGrid ... 1 (Lebedev-50)
Angular grid pruning method      GridPruning ... 4 (adaptive)
Weight generation scheme         WeightScheme... Becke
Basis function cutoff            BFCut       ... 1.0000e-11
Integration weight cutoff        WCut        ... 1.0000e-14
Angular grids for H and He will be reduced by one unit
Partially contracted basis set               ... on
Rotationally invariant grid construction     ... off

Total number of grid points                  ...    12277
Total number of batches                      ...      200
Average number of points per batch           ...       61
Average number of grid points per atom       ...      585
UseSFitting                                  ... on

GRIDX 2
-------
General Integration Accuracy     IntAcc      ... 4.020
Radial Grid Type                 RadialGrid  ... OptM3 with GC (2021)
Angular Grid (max. ang.)         AngularGrid ... 2 (Lebedev-110)
Angular grid pruning method      GridPruning ... 4 (adaptive)
Weight generation scheme         WeightScheme... Becke
Basis function cutoff            BFCut       ... 1.0000e-11
Integration weight cutoff        WCut        ... 1.0000e-14
Angular grids for H and He will be reduced by one unit
Partially contracted basis set               ... on
Rotationally invariant grid construction     ... off

Total number of grid points                  ...    25977
Total number of batches                      ...      417
Average number of points per batch           ...       62
Average number of grid points per atom       ...     1237
UseSFitting                                  ... on

GRIDX 3
-------
General Integration Accuracy     IntAcc      ... 4.338
Radial Grid Type                 RadialGrid  ... OptM3 with GC (2021)
Angular Grid (max. ang.)         AngularGrid ... 3 (Lebedev-194)
Angular grid pruning method      GridPruning ... 4 (adaptive)
Weight generation scheme         WeightScheme... Becke
Basis function cutoff            BFCut       ... 1.0000e-11
Integration weight cutoff        WCut        ... 1.0000e-14
Angular grids for H and He will be reduced by one unit
Partially contracted basis set               ... on
Rotationally invariant grid construction     ... off

Total number of grid points                  ...    56927
Total number of batches                      ...      899
Average number of points per batch           ...       63
Average number of grid points per atom       ...     2711
UseSFitting                                  ... on

Time for X-Grid setup             =    1.309 sec

--------------
SCF ITERATIONS
--------------
ITER       Energy         Delta-E        Max-DP      RMS-DP      [F,P]     Damp
               ***  Starting incremental Fock matrix formation  ***
  0  -1102.6255606831   0.000000000000 0.36341294  0.00663677  0.5857901 0.7000
  1  -1102.7865824295  -0.161021746372 0.17156475  0.00432580  0.3087357 0.7000
  2  -1103.2935147855  -0.506932356056 0.12321851  0.00318940  0.2320076 0.7000
                               ***Turning on DIIS***
  3  -1103.6408882941  -0.347373508532 0.08122020  0.00214792  0.1752314 0.7000
  4  -1103.8726556374  -0.231767343279 0.05092905  0.00158717  0.1293353 0.7000
  5  -1104.0381033840  -0.165447746642 0.12916391  0.00404199  0.0915855 0.0000
  6  -1104.4408440903  -0.402740706304 0.02699576  0.00066723  0.0270781 0.0000
  7  -1104.4435060548  -0.002661964504 0.01023012  0.00023044  0.0073068 0.0000
  8  -1104.4442634477  -0.000757392850 0.00556694  0.00015071  0.0041784 0.0000
  9  -1104.4445640341  -0.000300586400 0.00517724  0.00010799  0.0038766 0.0000
 10  -1104.4447106852  -0.000146651107 0.00315446  0.00006585  0.0015651 0.0000
 11  -1104.4447660211  -0.000055335900 0.00335459  0.00009194  0.0008179 0.0000
               *** Restarting incremental Fock matrix formation ***
                                   *** Resetting DIIS ***
 12  -1104.4448546509  -0.000088629813 0.00174286  0.00004290  0.0004694 0.0000
 13  -1104.4448624544  -0.000007803512 0.00061730  0.00001800  0.0005173 0.0000
 14  -1104.4448658099  -0.000003355503 0.00102644  0.00002895  0.0002459 0.0000
 15  -1104.4448692495  -0.000003439559 0.00056263  0.00001507  0.0001329 0.0000
 16  -1104.4448700865  -0.000000836998 0.00037271  0.00001004  0.0000898 0.0000
 17  -1104.4448703295  -0.000000243017 0.00010521  0.00000224  0.0000400 0.0000
 18  -1104.4448703484  -0.000000018942 0.00003930  0.00000089  0.0000122 0.0000
 19  -1104.4448703537  -0.000000005336 0.00001171  0.00000029  0.0000070 0.0000
                 **** Energy Check signals convergence ****

               *****************************************************
               *                     SUCCESS                       *
               *           SCF CONVERGED AFTER  20 CYCLES          *
               *****************************************************

Old exchange energy                            =    -36.299318797 Eh
New exchange energy                            =    -36.299368974 Eh
Exchange energy change after final integration =     -0.000050177 Eh
Total energy after final integration           =  -1104.444920533 Eh
Final COS-X integration done in                =    11.333 sec

----------------
TOTAL SCF ENERGY
----------------

Total Energy       :        -1104.44492053 Eh          -30053.47418 eV

Components:
Nuclear Repulsion  :          579.23035278 Eh           15761.65921 eV
Electronic Energy  :        -1683.67527331 Eh          -45815.13338 eV
One Electron Energy:        -2643.34310465 Eh          -71929.02268 eV
Two Electron Energy:          959.66783134 Eh           26113.88930 eV
Max COSX asymmetry :            0.00000577 Eh               0.00016 eV

Virial components:
Potential Energy   :        -2205.53777648 Eh          -60015.73404 eV
Kinetic Energy     :         1101.09285594 Eh           29962.25986 eV
Virial Ratio       :            2.00304431


DFT components:
N(Alpha)           :       41.000184638588 electrons
N(Beta)            :       41.000184638588 electrons
N(Total)           :       82.000369277176 electrons
E(X)               :      -48.401787671969 Eh       
E(C)               :       -3.766402225453 Eh       
E(XC)              :      -52.168189897423 Eh       
DFET-embed. en.    :        0.000000000000 Eh       

---------------
SCF CONVERGENCE
---------------

  Last Energy change         ...   -2.5036e-09  Tolerance :   1.0000e-08
  Last MAX-Density change    ...    0.0000e+00  Tolerance :   1.0000e-07
  Last RMS-Density change    ...    0.0000e+00  Tolerance :   5.0000e-09
  Last DIIS Error            ...    3.1031e-06  Tolerance :   5.0000e-07

             **** THE GBW FILE WAS UPDATED (8_8_orca.gbw) ****
             **** DENSITY 8_8_orca.scfp WAS UPDATED ****
             **** ENERGY FILE WAS UPDATED (8_8_orca.en.tmp) ****
             **** THE GBW FILE WAS UPDATED (8_8_orca.gbw) ****
             **** DENSITY 8_8_orca.scfp WAS UPDATED ****
----------------
ORBITAL ENERGIES
----------------

  NO   OCC          E(Eh)            E(eV) 
   0   2.0000    -162.857144     -4431.5682 
   1   2.0000     -18.164773      -494.2886 
   2   2.0000     -15.005292      -408.3147 
   3   2.0000     -14.999585      -408.1595 
   4   2.0000     -14.996027      -408.0626 
   5   2.0000     -14.870132      -404.6369 
   6   2.0000     -14.869224      -404.6122 
   7   2.0000     -10.646901      -289.7169 
   8   2.0000     -10.636877      -289.4441 
   9   2.0000     -10.633214      -289.3445 
  10   2.0000     -10.629554      -289.2449 
  11   2.0000     -10.623982      -289.0933 
  12   2.0000     -10.514303      -286.1087 
  13   2.0000      -2.385149       -64.9032 
  14   2.0000      -1.539930       -41.9036 
  15   2.0000      -1.528251       -41.5858 
  16   2.0000      -1.522429       -41.4274 
  17   2.0000      -1.320216       -35.9249 
  18   2.0000      -1.197877       -32.5959 
  19   2.0000      -1.034966       -28.1629 
  20   2.0000      -0.988587       -26.9008 
  21   2.0000      -0.937514       -25.5111 
  22   2.0000      -0.851048       -23.1582 
  23   2.0000      -0.830804       -22.6073 
  24   2.0000      -0.812976       -22.1222 
  25   2.0000      -0.759410       -20.6646 
  26   2.0000      -0.712656       -19.3924 
  27   2.0000      -0.683532       -18.5999 
  28   2.0000      -0.667949       -18.1758 
  29   2.0000      -0.665635       -18.1129 
  30   2.0000      -0.657814       -17.9000 
  31   2.0000      -0.615020       -16.7355 
  32   2.0000      -0.605282       -16.4706 
  33   2.0000      -0.600787       -16.3483 
  34   2.0000      -0.533779       -14.5249 
  35   2.0000      -0.524782       -14.2801 
  36   2.0000      -0.519858       -14.1461 
  37   2.0000      -0.494981       -13.4691 
  38   2.0000      -0.455494       -12.3946 
  39   2.0000      -0.439989       -11.9727 
  40   2.0000      -0.357936        -9.7399 
  41   0.0000      -0.184068        -5.0087 
  42   0.0000      -0.172460        -4.6929 
  43   0.0000      -0.155874        -4.2416 
  44   0.0000      -0.148745        -4.0476 
  45   0.0000      -0.137677        -3.7464 
  46   0.0000      -0.125523        -3.4157 
  47   0.0000      -0.087000        -2.3674 
  48   0.0000      -0.073306        -1.9948 
  49   0.0000      -0.058220        -1.5842 
  50   0.0000      -0.014621        -0.3979 
  51   0.0000      -0.004349        -0.1184 
  52   0.0000       0.024557         0.6682 
  53   0.0000       0.044089         1.1997 
  54   0.0000       0.048686         1.3248 
  55   0.0000       0.051459         1.4003 
  56   0.0000       0.061703         1.6790 
  57   0.0000       0.065185         1.7738 
  58   0.0000       0.068743         1.8706 
  59   0.0000       0.077207         2.1009 
  60   0.0000       0.078899         2.1470 
  61   0.0000       0.089590         2.4379 
  62   0.0000       0.117864         3.2072 
  63   0.0000       0.128686         3.5017 
  64   0.0000       0.143236         3.8977 
  65   0.0000       0.151881         4.1329 
  66   0.0000       0.162108         4.4112 
  67   0.0000       0.171166         4.6577 
  68   0.0000       0.213192         5.8013 
  69   0.0000       0.219120         5.9626 
  70   0.0000       0.304388         8.2828 
  71   0.0000       0.320281         8.7153 
  72   0.0000       0.326799         8.8927 
  73   0.0000       0.344170         9.3653 
  74   0.0000       0.358256         9.7486 
  75   0.0000       0.372106        10.1255 
  76   0.0000       0.384718        10.4687 
  77   0.0000       0.407404        11.0860 
  78   0.0000       0.416401        11.3309 
  79   0.0000       0.420563        11.4441 
  80   0.0000       0.433127        11.7860 
  81   0.0000       0.455318        12.3898 
  82   0.0000       0.474905        12.9228 
  83   0.0000       0.489880        13.3303 
  84   0.0000       0.502129        13.6636 
  85   0.0000       0.514590        14.0027 
  86   0.0000       0.523303        14.2398 
  87   0.0000       0.540219        14.7001 
  88   0.0000       0.550429        14.9779 
  89   0.0000       0.563910        15.3448 
  90   0.0000       0.599639        16.3170 
  91   0.0000       0.610894        16.6233 
  92   0.0000       0.650061        17.6891 
  93   0.0000       0.668664        18.1953 
  94   0.0000       0.691072        18.8050 
  95   0.0000       0.755230        20.5509 
  96   0.0000       0.772390        21.0178 
  97   0.0000       0.775608        21.1054 
  98   0.0000       0.792203        21.5569 
  99   0.0000       0.814754        22.1706 
 100   0.0000       0.835161        22.7259 
 101   0.0000       0.851741        23.1770 
 102   0.0000       0.859041        23.3757 
 103   0.0000       0.864482        23.5238 
 104   0.0000       0.880163        23.9504 
 105   0.0000       0.884401        24.0658 
 106   0.0000       0.886664        24.1273 
 107   0.0000       0.906157        24.6578 
 108   0.0000       0.922610        25.1055 
 109   0.0000       0.930529        25.3210 
 110   0.0000       0.943003        25.6604 
 111   0.0000       0.947160        25.7735 
 112   0.0000       0.963238        26.2110 
 113   0.0000       0.967104        26.3162 
 114   0.0000       0.976848        26.5814 
 115   0.0000       0.995121        27.0786 
 116   0.0000       1.044275        28.4162 
 117   0.0000       1.068955        29.0878 
 118   0.0000       1.109236        30.1838 
 119   0.0000       1.136770        30.9331 
 120   0.0000       1.162870        31.6433 
 121   0.0000       1.197121        32.5753 
 122   0.0000       1.217742        33.1364 
 123   0.0000       1.245870        33.9019 
 124   0.0000       1.259607        34.2757 
 125   0.0000       1.295778        35.2599 
 126   0.0000       1.324629        36.0450 
 127   0.0000       1.345419        36.6107 
 128   0.0000       1.447898        39.3993 
 129   0.0000       1.493763        40.6473 
 130   0.0000       1.511556        41.1315 
 131   0.0000       1.553774        42.2803 
 132   0.0000       1.716422        46.7062 
 133   0.0000       1.721798        46.8525 
 134   0.0000       1.751370        47.6572 
 135   0.0000       1.776619        48.3443 
 136   0.0000       1.810955        49.2786 
 137   0.0000       1.837575        50.0030 
 138   0.0000       1.858641        50.5762 
 139   0.0000       1.876904        51.0731 
 140   0.0000       1.900557        51.7168 
 141   0.0000       1.956009        53.2257 
 142   0.0000       1.995957        54.3127 
 143   0.0000       2.004988        54.5585 
 144   0.0000       2.041757        55.5590 
 145   0.0000       2.054908        55.9169 
 146   0.0000       2.074244        56.4430 
 147   0.0000       2.130261        57.9673 
 148   0.0000       2.143469        58.3268 
 149   0.0000       2.153784        58.6075 
 150   0.0000       2.171249        59.0827 
 151   0.0000       2.207039        60.0566 
 152   0.0000       2.244136        61.0660 
 153   0.0000       2.256638        61.4062 
 154   0.0000       2.265696        61.6527 
 155   0.0000       2.280527        62.0563 
 156   0.0000       2.357836        64.1600 
 157   0.0000       2.372523        64.5596 
 158   0.0000       2.424394        65.9711 
 159   0.0000       2.513788        68.4037 
 160   0.0000       2.528783        68.8117 
 161   0.0000       2.646585        72.0172 
 162   0.0000       2.704558        73.5948 
 163   0.0000       2.738068        74.5066 
 164   0.0000       2.946952        80.1906 
 165   0.0000       3.015938        82.0679 
 166   0.0000       3.081852        83.8614 
 167   0.0000      13.363603       363.6421 
 168   0.0000      13.570611       369.2751 
 169   0.0000      13.630425       370.9027 
 170   0.0000      13.655726       371.5912 
 171   0.0000      13.776874       374.8878 
 172   0.0000      13.972609       380.2140 
 173   0.0000      19.106618       519.9175 
 174   0.0000      19.303764       525.2821 

                    ********************************
                    * MULLIKEN POPULATION ANALYSIS *
                    ********************************

-----------------------
MULLIKEN ATOMIC CHARGES
-----------------------
   0 Sc:    0.713113
   1 C :    0.181677
   2 N :   -0.416525
   3 C :   -0.066394
   4 C :   -0.061886
   5 N :   -0.399094
   6 C :   -0.568185
   7 H :    0.298960
   8 H :    0.304207
   9 H :    0.246995
  10 C :   -0.515413
  11 H :    0.246159
  12 H :    0.281728
  13 H :    0.277026
  14 H :    0.304644
  15 H :    0.304843
  16 C :   -0.898187
  17 H :    0.257152
  18 H :    0.214279
  19 H :    0.208705
  20 H :    0.086196
Sum of atomic charges:    1.0000000

--------------------------------
MULLIKEN REDUCED ORBITAL CHARGES
--------------------------------
  0 Scs       :     6.442112  s :     6.442112
      pz      :     4.219235  p :    12.362109
      px      :     4.060306
      py      :     4.082569
      dz2     :     0.365887  d :     1.459559
      dxz     :     0.493012
      dyz     :     0.193540
      dx2y2   :     0.144321
      dxy     :     0.262799
      f0      :     0.004554  f :     0.023107
      f+1     :     0.009612
      f-1     :     0.002056
      f+2     :     0.002702
      f-2     :     0.002428
      f+3     :     0.001071
      f-3     :     0.000682
  1 C s       :     3.213590  s :     3.213590
      pz      :     1.002919  p :     2.538292
      px      :     0.831010
      py      :     0.704363
      dz2     :     0.007942  d :     0.066441
      dxz     :     0.010966
      dyz     :     0.021380
      dx2y2   :     0.014997
      dxy     :     0.011157
  2 N s       :     3.532386  s :     3.532386
      pz      :     1.237215  p :     3.830700
      px      :     1.347644
      py      :     1.245841
      dz2     :     0.012500  d :     0.053439
      dxz     :     0.007983
      dyz     :     0.013017
      dx2y2   :     0.010327
      dxy     :     0.009613
  3 C s       :     3.158595  s :     3.158595
      pz      :     0.876289  p :     2.852723
      px      :     1.049584
      py      :     0.926850
      dz2     :     0.013269  d :     0.055075
      dxz     :     0.010724
      dyz     :     0.013559
      dx2y2   :     0.007099
      dxy     :     0.010425
  4 C s       :     3.155499  s :     3.155499
      pz      :     0.880349  p :     2.850864
      px      :     0.923977
      py      :     1.046537
      dz2     :     0.012840  d :     0.055524
      dxz     :     0.011394
      dyz     :     0.013316
      dx2y2   :     0.011481
      dxy     :     0.006492
  5 N s       :     3.525880  s :     3.525880
      pz      :     1.221834  p :     3.820328
      px      :     1.365003
      py      :     1.233492
      dz2     :     0.012384  d :     0.052885
      dxz     :     0.009365
      dyz     :     0.011770
      dx2y2   :     0.009071
      dxy     :     0.010295
  6 C s       :     3.382912  s :     3.382912
      pz      :     1.201191  p :     3.136145
      px      :     1.003042
      py      :     0.931912
      dz2     :     0.007375  d :     0.049128
      dxz     :     0.005390
      dyz     :     0.013818
      dx2y2   :     0.010300
      dxy     :     0.012245
  7 H s       :     0.701040  s :     0.701040
  8 H s       :     0.695793  s :     0.695793
  9 H s       :     0.753005  s :     0.753005
 10 C s       :     3.367875  s :     3.367875
      pz      :     1.137846  p :     3.098659
      px      :     1.133418
      py      :     0.827395
      dz2     :     0.009044  d :     0.048879
      dxz     :     0.004863
      dyz     :     0.011424
      dx2y2   :     0.015396
      dxy     :     0.008153
 11 H s       :     0.753841  s :     0.753841
 12 H s       :     0.718272  s :     0.718272
 13 H s       :     0.722974  s :     0.722974
 14 H s       :     0.695356  s :     0.695356
 15 H s       :     0.695157  s :     0.695157
 16 C s       :     3.451254  s :     3.451254
      pz      :     1.131468  p :     3.421505
      px      :     1.145404
      py      :     1.144633
      dz2     :     0.005066  d :     0.025428
      dxz     :     0.011331
      dyz     :     0.000610
      dx2y2   :     0.003811
      dxy     :     0.004609
 17 H s       :     0.742848  s :     0.742848
 18 H s       :     0.785721  s :     0.785721
 19 H s       :     0.791295  s :     0.791295
 20 H s       :     0.913804  s :     0.913804


                     *******************************
                     * LOEWDIN POPULATION ANALYSIS *
                     *******************************

----------------------
LOEWDIN ATOMIC CHARGES
----------------------
   0 Sc:    0.508865
   1 C :   -0.042295
   2 N :    0.008147
   3 C :   -0.081711
   4 C :   -0.078038
   5 N :    0.001994
   6 C :   -0.240677
   7 H :    0.166698
   8 H :    0.165896
   9 H :    0.143378
  10 C :   -0.232913
  11 H :    0.146308
  12 H :    0.157108
  13 H :    0.154448
  14 H :    0.168965
  15 H :    0.168697
  16 C :   -0.564229
  17 H :    0.146692
  18 H :    0.126691
  19 H :    0.127983
  20 H :    0.047994

-------------------------------
LOEWDIN REDUCED ORBITAL CHARGES
-------------------------------
  0 Scs       :     6.402069  s :     6.402069
      pz      :     4.252264  p :    12.422413
      px      :     4.062783
      py      :     4.107366
      dz2     :     0.423532  d :     1.612477
      dxz     :     0.522059
      dyz     :     0.222785
      dx2y2   :     0.156119
      dxy     :     0.287980
      f0      :     0.011526  f :     0.054176
      f+1     :     0.019789
      f-1     :     0.005097
      f+2     :     0.006565
      f-2     :     0.005444
      f+3     :     0.003936
      f-3     :     0.001818
  1 C s       :     2.951507  s :     2.951507
      pz      :     1.139087  p :     2.945412
      px      :     0.927219
      py      :     0.879105
      dz2     :     0.016064  d :     0.145377
      dxz     :     0.022148
      dyz     :     0.046048
      dx2y2   :     0.033751
      dxy     :     0.027364
  2 N s       :     3.042966  s :     3.042966
      pz      :     1.255281  p :     3.820539
      px      :     1.322564
      py      :     1.242694
      dz2     :     0.030835  d :     0.128349
      dxz     :     0.020579
      dyz     :     0.032442
      dx2y2   :     0.022317
      dxy     :     0.022175
  3 C s       :     2.880950  s :     2.880950
      pz      :     0.977170  p :     3.077902
      px      :     1.061432
      py      :     1.039300
      dz2     :     0.030579  d :     0.122859
      dxz     :     0.021448
      dyz     :     0.031918
      dx2y2   :     0.015648
      dxy     :     0.023267
  4 C s       :     2.882371  s :     2.882371
      pz      :     0.978717  p :     3.071918
      px      :     1.001940
      py      :     1.091261
      dz2     :     0.029434  d :     0.123749
      dxz     :     0.026231
      dyz     :     0.027903
      dx2y2   :     0.024461
      dxy     :     0.015721
  5 N s       :     3.040712  s :     3.040712
      pz      :     1.253354  p :     3.829601
      px      :     1.330062
      py      :     1.246185
      dz2     :     0.030582  d :     0.127693
      dxz     :     0.022427
      dyz     :     0.031499
      dx2y2   :     0.020142
      dxy     :     0.023042
  6 C s       :     2.936940  s :     2.936940
      pz      :     1.154422  p :     3.209683
      px      :     1.053996
      py      :     1.001264
      dz2     :     0.013146  d :     0.094054
      dxz     :     0.009652
      dyz     :     0.025909
      dx2y2   :     0.020774
      dxy     :     0.024574
  7 H s       :     0.833302  s :     0.833302
  8 H s       :     0.834104  s :     0.834104
  9 H s       :     0.856622  s :     0.856622
 10 C s       :     2.939298  s :     2.939298
      pz      :     1.133762  p :     3.199832
      px      :     1.131603
      py      :     0.934467
      dz2     :     0.016300  d :     0.093784
      dxz     :     0.007782
      dyz     :     0.022644
      dx2y2   :     0.030266
      dxy     :     0.016792
 11 H s       :     0.853692  s :     0.853692
 12 H s       :     0.842892  s :     0.842892
 13 H s       :     0.845552  s :     0.845552
 14 H s       :     0.831035  s :     0.831035
 15 H s       :     0.831303  s :     0.831303
 16 C s       :     3.040832  s :     3.040832
      pz      :     1.141236  p :     3.483198
      px      :     1.167912
      py      :     1.174050
      dz2     :     0.008302  d :     0.040199
      dxz     :     0.017706
      dyz     :     0.000943
      dx2y2   :     0.005738
      dxy     :     0.007510
 17 H s       :     0.853308  s :     0.853308
 18 H s       :     0.873309  s :     0.873309
 19 H s       :     0.872017  s :     0.872017
 20 H s       :     0.952006  s :     0.952006


                      *****************************
                      * MAYER POPULATION ANALYSIS *
                      *****************************

  NA   - Mulliken gross atomic population
  ZA   - Total nuclear charge
  QA   - Mulliken gross atomic charge
  VA   - Mayer's total valence
  BVA  - Mayer's bonded valence
  FA   - Mayer's free valence

  ATOM       NA         ZA         QA         VA         BVA        FA
  0 Sc    20.2869    21.0000     0.7131     2.6100     2.6100     0.0000
  1 C      5.8183     6.0000     0.1817     3.1924     3.1924     0.0000
  2 N      7.4165     7.0000    -0.4165     3.4291     3.4291     0.0000
  3 C      6.0664     6.0000    -0.0664     3.7541     3.7541     0.0000
  4 C      6.0619     6.0000    -0.0619     3.7417     3.7417     0.0000
  5 N      7.3991     7.0000    -0.3991     3.3789     3.3789    -0.0000
  6 C      6.5682     6.0000    -0.5682     3.5835     3.5835     0.0000
  7 H      0.7010     1.0000     0.2990     0.8892     0.8892     0.0000
  8 H      0.6958     1.0000     0.3042     0.8681     0.8681     0.0000
  9 H      0.7530     1.0000     0.2470     0.8955     0.8955    -0.0000
 10 C      6.5154     6.0000    -0.5154     3.6195     3.6195     0.0000
 11 H      0.7538     1.0000     0.2462     0.9077     0.9077     0.0000
 12 H      0.7183     1.0000     0.2817     0.8845     0.8845    -0.0000
 13 H      0.7230     1.0000     0.2770     0.8855     0.8855     0.0000
 14 H      0.6954     1.0000     0.3046     0.8772     0.8772     0.0000
 15 H      0.6952     1.0000     0.3048     0.8769     0.8769     0.0000
 16 C      6.8982     6.0000    -0.8982     3.7015     3.7015     0.0000
 17 H      0.7428     1.0000     0.2572     0.9070     0.9070     0.0000
 18 H      0.7857     1.0000     0.2143     0.9125     0.9125     0.0000
 19 H      0.7913     1.0000     0.2087     0.9100     0.9100    -0.0000
 20 H      0.9138     1.0000     0.0862     0.9761     0.9761     0.0000

  Mayer bond orders larger than 0.100000
B(  0-Sc,  1-C ) :   0.6248 B(  0-Sc, 16-C ) :   0.9146 B(  0-Sc, 20-H ) :   0.9329 
B(  1-C ,  2-N ) :   1.2513 B(  1-C ,  5-N ) :   1.2213 B(  2-N ,  3-C ) :   1.1626 
B(  2-N , 10-C ) :   0.9128 B(  3-C ,  4-C ) :   1.6348 B(  3-C , 14-H ) :   0.8776 
B(  4-C ,  5-N ) :   1.1441 B(  4-C , 15-H ) :   0.8767 B(  5-N ,  6-C ) :   0.9074 
B(  6-C ,  7-H ) :   0.8985 B(  6-C ,  8-H ) :   0.8638 B(  6-C ,  9-H ) :   0.8990 
B( 10-C , 11-H ) :   0.9162 B( 10-C , 12-H ) :   0.8941 B( 10-C , 13-H ) :   0.8956 
B( 16-C , 17-H ) :   0.9174 B( 16-C , 18-H ) :   0.9118 B( 16-C , 19-H ) :   0.9077 



------------------
HIRSHFELD ANALYSIS
------------------

Total integrated alpha density =     41.000184638
Total integrated beta density  =     41.000184638

  ATOM     CHARGE      SPIN    
   0 Sc   0.789253    0.000000
   1 C   -0.073545    0.000000
   2 N   -0.007302    0.000000
   3 C    0.018548    0.000000
   4 C    0.021416    0.000000
   5 N   -0.013438    0.000000
   6 C    0.020992    0.000000
   7 H    0.075890    0.000000
   8 H    0.066174    0.000000
   9 H    0.060593    0.000000
  10 C    0.017228    0.000000
  11 H    0.064074    0.000000
  12 H    0.066808    0.000000
  13 H    0.063622    0.000000
  14 H    0.087151    0.000000
  15 H    0.087688    0.000000
  16 C   -0.227821    0.000000
  17 H    0.037249    0.000000
  18 H    0.012062    0.000000
  19 H    0.011160    0.000000
  20 H   -0.178171    0.000000

  TOTAL   0.999631    0.000000

-------
TIMINGS
-------

Total SCF time: 0 days 0 hours 1 min 43 sec 

Total time                  ....     103.426 sec
Sum of individual times     ....     103.085 sec  ( 99.7%)

Fock matrix formation       ....     100.677 sec  ( 97.3%)
  Split-RI-J                ....       8.995 sec  (  8.9% of F)
  Chain of spheres X        ....      80.670 sec  ( 80.1% of F)
  XC integration            ....      11.046 sec  ( 11.0% of F)
    Basis function eval.    ....       4.738 sec  ( 42.9% of XC)
    Density eval.           ....       2.226 sec  ( 20.2% of XC)
    XC-Functional eval.     ....       1.159 sec  ( 10.5% of XC)
    XC-Potential eval.      ....       2.486 sec  ( 22.5% of XC)
Diagonalization             ....       0.096 sec  (  0.1%)
Density matrix formation    ....       0.010 sec  (  0.0%)
Population analysis         ....       0.393 sec  (  0.4%)
Initial guess               ....       0.019 sec  (  0.0%)
Orbital Transformation      ....       0.000 sec  (  0.0%)
Orbital Orthonormalization  ....       0.000 sec  (  0.0%)
DIIS solution               ....       0.034 sec  (  0.0%)
Grid generation             ....       1.856 sec  (  1.8%)

Maximum memory used throughout the entire SCF-calculation: 97.1 MB


-------------------------------------------------------------------------------
                          DFT DISPERSION CORRECTION                            
                                                                               
                              DFTD3 V3.1  Rev 1                                
                          USING Becke-Johnson damping                          
-------------------------------------------------------------------------------
The PBEh-3c composite method is recognized
Using three-body term ABC
Active option DFTDOPT                   ...         4   

molecular C6(AA) [au] = 5397.998471 


            DFT-D V3
 parameters
 s6 scaling factor         :     1.0000 
 a1 scaling factor         :     0.4860 
 s8 scaling factor         :     0.0000 
 a2 scaling factor         :     4.5000 
 Damping factor alpha9(ATM):    16.0000 
 ad hoc parameters k1-k3   :    16.0000     1.3333    -4.0000 

 Edisp/kcal,au: -6.993165654740  -0.011144317652 
 E6   /kcal   :  -7.039484630 
 E8   /kcal   :  -0.000000000 
 E6(ABC)      :   0.046318975 
 % E8         :   0.000000000 
 % E6(ABC)    :  -0.662346322 

-------------------------   ----------------
Dispersion correction           -0.011144318
-------------------------   ----------------

------------------   -----------------
gCP correction             0.034980406
------------------   -----------------

-------------------------   --------------------
FINAL SINGLE POINT ENERGY     -1104.421084444255
-------------------------   --------------------

------------------------------------------------------------------------------
                         ORCA SCF GRADIENT CALCULATION
------------------------------------------------------------------------------

 ... reading COSX grid (gridx3)
Gradient of the Kohn-Sham DFT energy:
Kohn-Sham wavefunction type      ... RKS
Hartree-Fock exchange scaling    ...    0.420
Number of operators              ...    1
Number of atoms                  ...   21
Basis set dimensions             ...  175
Integral neglect threshold       ... 2.5e-11
Integral primitive cutoff        ... 2.5e-12
SHARK Integral package           ... ON

Nuc. rep. gradient       (SHARK) ... done (  0.0 sec)
HCore & Overlap gradient (SHARK) ... done (  0.3 sec)
RI-J gradient            (SHARK) ... done (  1.7 sec)
COSX-gradient                    ... done ( 14.0 sec)
Exchange-correlation gradient    ... done
Dispersion correction            ... done
gCP correction                   ... done

------------------
CARTESIAN GRADIENT
------------------

   1   Sc  :    0.015812705   -0.038657275    0.008386962
   2   C   :    0.000873007   -0.002480327    0.000674622
   3   N   :   -0.003977023   -0.001498910    0.007456421
   4   C   :    0.003374154    0.003194404   -0.005100789
   5   C   :   -0.001134557   -0.002633286   -0.003277057
   6   N   :    0.000030935    0.003287413    0.008303360
   7   C   :    0.000385927   -0.001774683   -0.006664722
   8   H   :   -0.001808355   -0.000902971    0.002008533
   9   H   :    0.003570718   -0.000891470    0.001566475
  10   H   :   -0.003006120    0.001179948   -0.001436893
  11   C   :    0.000807212    0.000135194   -0.001969830
  12   H   :   -0.001557886   -0.000891818    0.000883797
  13   H   :    0.000051526   -0.000162983   -0.000274224
  14   H   :    0.000300162    0.001570478    0.000464893
  15   H   :    0.002126107    0.000263476   -0.002299029
  16   H   :    0.000492677   -0.000769522   -0.001231324
  17   C   :   -0.013397953    0.013963327   -0.009205435
  18   H   :   -0.010741208    0.009856532   -0.009013305
  19   H   :   -0.003972621   -0.003516362   -0.004268050
  20   H   :    0.001076082   -0.002600515   -0.002421635
  21   H   :    0.010315903    0.023219596    0.017145154

Difference to translation invariance:
           :   -0.0003786086   -0.0001097525   -0.0002720750

Difference to rotation invariance:
           :   -0.0004418429    0.0003596960   -0.0001131123

Norm of the cartesian gradient     ...    0.0624720872
RMS gradient                       ...    0.0078707432
MAX gradient                       ...    0.0386572751

-------
TIMINGS
-------

Total SCF gradient time            ...       20.019 sec

One electron gradient       ....       0.302 sec  (  1.5%)
RI-J Coulomb gradient       ....       1.748 sec  (  8.7%)
COSX gradient               ....      13.980 sec  ( 69.8%)
XC gradient                 ....       3.323 sec  ( 16.6%)

Maximum memory used throughout the entire SCFGRAD-calculation: 68.9 MB

                            ***************************************
                            *     ORCA property calculations      *
                            ***************************************

                                    ---------------------
                                    Active property flags
                                    ---------------------
   (+) Dipole Moment


------------------------------------------------------------------------------
                       ORCA ELECTRIC PROPERTIES CALCULATION
------------------------------------------------------------------------------

Dipole Moment Calculation                       ... on
Quadrupole Moment Calculation                   ... off
Polarizability Calculation                      ... off
GBWName                                         ... 8_8_orca.gbw
Electron density                                ... 8_8_orca.scfp
The origin for moment calculation is the CENTER OF MASS  = ( 0.623760, -0.414932 -0.318153)

-------------
DIPOLE MOMENT
-------------
                                X             Y             Z
Electronic contribution:      8.71813      -5.54805      -3.17008
Nuclear contribution   :     -7.13718       4.64127       3.93632
                        -----------------------------------------
Total Dipole Moment    :      1.58095      -0.90678       0.76624
                        -----------------------------------------
Magnitude (a.u.)       :      1.97706
Magnitude (Debye)      :      5.02529



--------------------
Rotational spectrum 
--------------------
 
Rotational constants in cm-1:     0.055731     0.029171     0.022648 
Rotational constants in MHz :  1670.773585   874.513868   678.964887 

 Dipole components along the rotational axes: 
x,y,z [a.u.] :     0.480782    -0.102972    -1.914945 
x,y,z [Debye]:     1.222050    -0.261735    -4.867405 

 

Timings for individual modules:

Sum of individual times         ...      123.823 sec (=   2.064 min)
GTO integral calculation        ...        0.321 sec (=   0.005 min)   0.3 %
SCF iterations                  ...      103.448 sec (=   1.724 min)  83.5 %
SCF Gradient evaluation         ...       20.055 sec (=   0.334 min)  16.2 %
                             ****ORCA TERMINATED NORMALLY****
TOTAL RUN TIME: 0 days 0 hours 2 minutes 4 seconds 908 msec
