
                                 *****************
                                 * O   R   C   A *
                                 *****************

                                            #,                                       
                                            ###                                      
                                            ####                                     
                                            #####                                    
                                            ######                                   
                                           ########,                                 
                                     ,,################,,,,,                         
                               ,,#################################,,                 
                          ,,##########################################,,             
                       ,#########################################, ''#####,          
                    ,#############################################,,   '####,        
                  ,##################################################,,,,####,       
                ,###########''''           ''''###############################       
              ,#####''   ,,,,##########,,,,          '''####'''          '####       
            ,##' ,,,,###########################,,,                        '##       
           ' ,,###''''                  '''############,,,                           
         ,,##''                                '''############,,,,        ,,,,,,###''
      ,#''                                            '''#######################'''  
     '                                                          ''''####''''         
             ,#######,   #######,   ,#######,      ##                                
            ,#'     '#,  ##    ##  ,#'     '#,    #''#        ######   ,####,        
            ##       ##  ##   ,#'  ##            #'  '#       #        #'  '#        
            ##       ##  #######   ##           ,######,      #####,   #    #        
            '#,     ,#'  ##    ##  '#,     ,#' ,#      #,         ##   #,  ,#        
             '#######'   ##     ##  '#######'  #'      '#     #####' # '####'        



                  #######################################################
                  #                        -***-                        #
                  #          Department of theory and spectroscopy      #
                  #    Directorship and core code : Frank Neese         #
                  #        Max Planck Institute fuer Kohlenforschung    #
                  #                Kaiser Wilhelm Platz 1               #
                  #                 D-45470 Muelheim/Ruhr               #
                  #                      Germany                        #
                  #                                                     #
                  #                  All rights reserved                #
                  #                        -***-                        #
                  #######################################################


                         Program Version 5.0.3 -  RELEASE  -


 With contributions from (in alphabetic order):
   Daniel Aravena         : Magnetic Suceptibility
   Michael Atanasov       : Ab Initio Ligand Field Theory (pilot matlab implementation)
   Alexander A. Auer      : GIAO ZORA, VPT2 properties, NMR spectrum
   Ute Becker             : Parallelization
   Giovanni Bistoni       : ED, misc. LED, open-shell LED, HFLD
   Martin Brehm           : Molecular dynamics
   Dmytro Bykov           : SCF Hessian
   Vijay G. Chilkuri      : MRCI spin determinant printing, contributions to CSF-ICE
   Dipayan Datta          : RHF DLPNO-CCSD density
   Achintya Kumar Dutta   : EOM-CC, STEOM-CC
   Dmitry Ganyushin       : Spin-Orbit,Spin-Spin,Magnetic field MRCI
   Miquel Garcia          : C-PCM and meta-GGA Hessian, CC/C-PCM, Gaussian charge scheme
   Yang Guo               : DLPNO-NEVPT2, F12-NEVPT2, CIM, IAO-localization
   Andreas Hansen         : Spin unrestricted coupled pair/coupled cluster methods
   Benjamin Helmich-Paris : MC-RPA, TRAH-SCF, COSX integrals
   Lee Huntington         : MR-EOM, pCC
   Robert Izsak           : Overlap fitted RIJCOSX, COSX-SCS-MP3, EOM
   Marcus Kettner         : VPT2
   Christian Kollmar      : KDIIS, OOCD, Brueckner-CCSD(T), CCSD density, CASPT2, CASPT2-K
   Simone Kossmann        : Meta GGA functionals, TD-DFT gradient, OOMP2, MP2 Hessian
   Martin Krupicka        : Initial AUTO-CI
   Lucas Lang             : DCDCAS
   Marvin Lechner         : AUTO-CI (C++ implementation), FIC-MRCC
   Dagmar Lenk            : GEPOL surface, SMD
   Dimitrios Liakos       : Extrapolation schemes; Compound Job, initial MDCI parallelization
   Dimitrios Manganas     : Further ROCIS development; embedding schemes
   Dimitrios Pantazis     : SARC Basis sets
   Anastasios Papadopoulos: AUTO-CI, single reference methods and gradients
   Taras Petrenko         : DFT Hessian,TD-DFT gradient, ASA, ECA, R-Raman, ABS, FL, XAS/XES, NRVS
   Peter Pinski           : DLPNO-MP2, DLPNO-MP2 Gradient
   Christoph Reimann      : Effective Core Potentials
   Marius Retegan         : Local ZFS, SOC
   Christoph Riplinger    : Optimizer, TS searches, QM/MM, DLPNO-CCSD(T), (RO)-DLPNO pert. Triples
   Tobias Risthaus        : Range-separated hybrids, TD-DFT gradient, RPA, STAB
   Michael Roemelt        : Original ROCIS implementation
   Masaaki Saitow         : Open-shell DLPNO-CCSD energy and density
   Barbara Sandhoefer     : DKH picture change effects
   Avijit Sen             : IP-ROCIS
   Kantharuban Sivalingam : CASSCF convergence, NEVPT2, FIC-MRCI
   Bernardo de Souza      : ESD, SOC TD-DFT
   Georgi Stoychev        : AutoAux, RI-MP2 NMR, DLPNO-MP2 response
   Willem Van den Heuvel  : Paramagnetic NMR
   Boris Wezisla          : Elementary symmetry handling
   Frank Wennmohs         : Technical directorship


 We gratefully acknowledge several colleagues who have allowed us to
 interface, adapt or use parts of their codes:
   Stefan Grimme, W. Hujo, H. Kruse, P. Pracht,  : VdW corrections, initial TS optimization,
                  C. Bannwarth, S. Ehlert          DFT functionals, gCP, sTDA/sTD-DF
   Ed Valeev, F. Pavosevic, A. Kumar             : LibInt (2-el integral package), F12 methods
   Garnet Chan, S. Sharma, J. Yang, R. Olivares  : DMRG
   Ulf Ekstrom                                   : XCFun DFT Library
   Mihaly Kallay                                 : mrcc  (arbitrary order and MRCC methods)
   Jiri Pittner, Ondrej Demel                    : Mk-CCSD
   Frank Weinhold                                : gennbo (NPA and NBO analysis)
   Christopher J. Cramer and Donald G. Truhlar   : smd solvation model
   Lars Goerigk                                  : TD-DFT with DH, B97 family of functionals
   V. Asgeirsson, H. Jonsson                     : NEB implementation
   FAccTs GmbH                                   : IRC, NEB, NEB-TS, DLPNO-Multilevel, CI-OPT
                                                   MM, QMMM, 2- and 3-layer-ONIOM, Crystal-QMMM,
                                                   LR-CPCM, SF, NACMEs, symmetry and pop. for TD-DFT,
                                                   nearIR, NL-DFT gradient (VV10), updates on ESD,
                                                   ML-optimized integration grids
   S Lehtola, MJT Oliveira, MAL Marques          : LibXC Library
   Liviu Ungur et al                             : ANISO software


 Your calculation uses the libint2 library for the computation of 2-el integrals
 For citations please refer to: http://libint.valeyev.net

 Your ORCA version has been built with support for libXC version: 5.1.0
 For citations please refer to: https://tddft.org/programs/libxc/

 This ORCA versions uses:
   CBLAS   interface :  Fast vector & matrix operations
   LAPACKE interface :  Fast linear algebra routines
   SCALAPACK package :  Parallel linear algebra routines
   Shared memory     :  Shared parallel matrices
   BLAS/LAPACK       :  OpenBLAS 0.3.15  USE64BITINT DYNAMIC_ARCH NO_AFFINITY SkylakeX SINGLE_THREADED
        Core in use  :  SkylakeX
   Copyright (c) 2011-2014, The OpenBLAS Project


Your calculation utilizes the geometrical counterpoise correction gCP
Please cite in your paper:
H.Kruse, S. Grimme J.Chem.Phys., 136, (2012), 154101 
   

Your calculation utilizes the atom-pairwise dispersion correction
with the Becke-Johnson damping scheme (D3BJ)
Cite in your paper:
S.Grimme, S.Ehrlich, L.Goerigk, J Comput Chem, (2011), 32, 1456–1465 
S.Grimme, J.Antony, S.Ehrlich and H.Krieg, J.Chem.Phys., 132, (2010), 154104 
   

Your calculation employs the composite approach PBEh-3c.
Please cite in your paper:
S. Grimme, J. G. Brandenburg, C. Bannwarth, A. Hansen J.Chem.Phys., 143, (2015), 054107 
   

================================================================================

cite the ECPs for Pd [Def2-ECP] as follows:
Ce-Yb(ecp-28): M. Dolg, H. Stoll, H.Preuss, J. Chem. Phys., 1989, 90, 1730-1734.
Y-Cd(ecp-28), Hf-Hg(ecp-46): D. Andrae,U. Haeussermann, M. Dolg, H. Stoll, H. Preuss, Theor. Chim. Acta, 1990, 77, 123-141.
In-Sb(ecp-28), Tl-Bi(ecp-46): B. Metz, H. Stoll, M. Dolg, J. Chem. Phys., 2000, 113, 2563-2569.
Te-Xe(ecp-28), Po-Rn(ecp-46): K. A. Peterson, D. Figgen, E. Goll, H. Stoll, M. Dolg, J. Chem. Phys., 2003, 119, 11113-11123.
Rb(ecp-28), Cs(ecp-46): T. Leininger, A. Nicklass, W. Kuechle, H. Stoll, M. Dolg, A. Bergner, Chem. Phys. Lett., 1996, 255, 274-280.
Sr(ecp-28), Ba(ecp-46): M. Kaupp, P. V. Schleyer, H. Stoll and H. Preuss, J. Chem. Phys., 1991, 94, 1360-1366.
La(ecp-46): M. Dolg, H. Stoll, A. Savin, H. Preuss, Theor. Chim. Acta, 1989, 75, 173-194.
Lu(ecp-28): X. Cao, M. Dolg, J. Chem. Phys., 2001, 115, 7348-7355.

ECP parameters for Pd [Def2-ECP] have been obtained from:
TURBOMOLE (7.0.2)

----- Orbital basis set information -----
Your calculation utilizes the basis: def2-mSVP

----- AuxJ basis set information -----
Your calculation utilizes the auxiliary basis: def2/J
   F. Weigend, Phys. Chem. Chem. Phys. 8, 1057 (2006).

================================================================================
                                        WARNINGS
                       Please study these warnings very carefully!
================================================================================


INFO   : the flag for use of the SHARK integral package has been found!

================================================================================
                                       INPUT FILE
================================================================================
NAME = 7_15_orca.inp
|  1> ! EnGrad PBEh-3c
|  2> %output 
|  3> xyzfile=True 
|  4> end 
|  5> %scf 
|  6> maxiter 250 
|  7> end
|  8> %output
|  9> Print[P_Hirshfeld] = 1
| 10> end
| 11> % maxcore
| 12> 4000
| 13> *xyz 0 1
| 14> C   -1.50511906   0.19670009  -0.46737076 
| 15> C   -2.04121273  -0.84489983  -1.21972262 
| 16> C   -1.59850592  -2.14482441  -0.98296007 
| 17> C   -0.77557773  -2.42011205   0.10487825 
| 18> C   -0.46992312  -0.03990455   0.45663096 
| 19> C   -0.25505455  -1.36505952   0.84231676 
| 20> H   -1.84910584   1.20016421  -0.68247772 
| 21> H   -2.69473839  -0.62888430  -2.06552439 
| 22> H   -1.87812014  -2.94072575  -1.66831422 
| 23> H    0.41214529  -1.58183366   1.66136309 
| 24> H   -0.41336903  -3.42914386   0.28063940 
| 25> Pd   1.20146558   0.94196461  -0.03335308 
| 26> O    3.03416467   1.23649823  -1.19109679 
| 27> O    2.48366254  -0.64930153  -0.25841559 
| 28> O    0.29371890   2.73632111   0.25157142 
| 29> C   -0.13636054   2.94792660   1.35224075 
| 30> O   -0.21047654   2.08900848   2.33749513 
| 31> H   -0.44127979   1.18884069   2.03771216 
| 32> C    3.27786212   0.03267614  -0.96906508 
| 33> H    4.15529068  -0.47220331  -1.42029292 
| 34> H   -0.59767736   3.91178112   1.59561509 
| 35> *
| 36> 
| 37>                          ****END OF INPUT****
================================================================================

                     *******************************
                     * Energy+Gradient Calculation *
                     *******************************

---------------------------------
CARTESIAN COORDINATES (ANGSTROEM)
---------------------------------
  C     -1.505119    0.196700   -0.467371
  C     -2.041213   -0.844900   -1.219723
  C     -1.598506   -2.144824   -0.982960
  C     -0.775578   -2.420112    0.104878
  C     -0.469923   -0.039905    0.456631
  C     -0.255055   -1.365060    0.842317
  H     -1.849106    1.200164   -0.682478
  H     -2.694738   -0.628884   -2.065524
  H     -1.878120   -2.940726   -1.668314
  H      0.412145   -1.581834    1.661363
  H     -0.413369   -3.429144    0.280639
  Pd     1.201466    0.941965   -0.033353
  O      3.034165    1.236498   -1.191097
  O      2.483663   -0.649302   -0.258416
  O      0.293719    2.736321    0.251571
  C     -0.136361    2.947927    1.352241
  O     -0.210477    2.089008    2.337495
  H     -0.441280    1.188841    2.037712
  C      3.277862    0.032676   -0.969065
  H      4.155291   -0.472203   -1.420293
  H     -0.597677    3.911781    1.595615

----------------------------
CARTESIAN COORDINATES (A.U.)
----------------------------
  NO LB      ZA    FRAG     MASS         X           Y           Z
   0 C     6.0000    0    12.011   -2.844263    0.371709   -0.883203
   1 C     6.0000    0    12.011   -3.857333   -1.596629   -2.304942
   2 C     6.0000    0    12.011   -3.020738   -4.053131   -1.857525
   3 C     6.0000    0    12.011   -1.465630   -4.573349    0.198191
   4 C     6.0000    0    12.011   -0.888026   -0.075409    0.862907
   5 C     6.0000    0    12.011   -0.481983   -2.579589    1.591748
   6 H     1.0000    0     1.008   -3.494304    2.267982   -1.289696
   7 H     1.0000    0     1.008   -5.092318   -1.188419   -3.903275
   8 H     1.0000    0     1.008   -3.549133   -5.557166   -3.152657
   9 H     1.0000    0     1.008    0.778842   -2.989232    3.139521
  10 H     1.0000    0     1.008   -0.781154   -6.480143    0.530332
  11 Pd   18.0000*   0   106.400    2.270441    1.780055   -0.063028
  12 O     8.0000    0    15.999    5.733740    2.336643   -2.250847
  13 O     8.0000    0    15.999    4.693442   -1.227002   -0.488335
  14 O     8.0000    0    15.999    0.555048    5.170898    0.475401
  15 C     6.0000    0    12.011   -0.257684    5.570774    2.555365
  16 O     8.0000    0    15.999   -0.397743    3.947654    4.417226
  17 H     1.0000    0     1.008   -0.833898    2.246583    3.850718
  18 C     6.0000    0    12.011    6.194262    0.061749   -1.831268
  19 H     1.0000    0     1.008    7.852361   -0.892335   -2.683965
  20 H     1.0000    0     1.008   -1.129447    7.392195    3.015276
* core charge reduced due to ECP

--------------------------------
INTERNAL COORDINATES (ANGSTROEM)
--------------------------------
 C      0   0   0     0.000000000000     0.00000000     0.00000000
 C      1   0   0     1.392250026972     0.00000000     0.00000000
 C      2   1   0     1.393502686898   118.93111070     0.00000000
 C      3   2   1     1.391540980745   120.34760868     8.70779519
 C      1   2   3     1.407619113406   120.80711588     4.16062895
 C      4   3   2     1.388486866343   119.11554030   351.33863733
 H      1   2   3     1.082376158820   117.63451624   178.77872776
 H      2   1   3     1.090476561699   120.11256844   188.02676066
 H      3   2   1     1.086900807784   119.61890314   190.31037701
 H      6   4   3     1.078417147933   118.85322541   182.29761538
 H      4   3   2     1.086384976791   120.49009148   181.19423187
 Pd     5   1   2     1.999422815040   111.79926976   117.37242691
 O     12   5   1     2.187671480328   153.65032767   282.14475696
 O     12   5   1     2.055920744083    99.67609936   240.22839451
 O     12   5   1     2.030985291636    91.48190552    64.83304218
 C     15  12   5     1.200507468578   116.38927689    59.90074016
 O     16  15  12     1.309182841176   126.48593962   351.90473103
 H     17  16  15     0.976443556723   112.77745514   322.67725058
 C     13  12   5     1.248148289168    86.53568684   312.59762448
 H     19  13  12     1.108327884936   121.43313038   175.32022469
 H     16  15  12     1.095928744723   120.62548333   177.14241705

---------------------------
INTERNAL COORDINATES (A.U.)
---------------------------
 C      0   0   0     0.000000000000     0.00000000     0.00000000
 C      1   0   0     2.630971260922     0.00000000     0.00000000
 C      2   1   0     2.633338445120   118.93111070     0.00000000
 C      3   2   1     2.629631357737   120.34760868     8.70779519
 C      1   2   3     2.660014625210   120.80711588     4.16062895
 C      4   3   2     2.623859917935   119.11554030   351.33863733
 H      1   2   3     2.045394514056   117.63451624   178.77872776
 H      2   1   3     2.060702057071   120.11256844   188.02676066
 H      3   2   1     2.053944861450   119.61890314   190.31037701
 H      6   4   3     2.037913067717   118.85322541   182.29761538
 H      4   3   2     2.052970082141   120.49009148   181.19423187
 Pd     5   1   2     3.778361546339   111.79926976   117.37242691
 O     12   5   1     4.134099968811   153.65032767   282.14475696
 O     12   5   1     3.885127159365    99.67609936   240.22839451
 O     12   5   1     3.838005983215    91.48190552    64.83304218
 C     15  12   5     2.268630337339   116.38927689    59.90074016
 O     16  15  12     2.473997029051   126.48593962   351.90473103
 H     17  16  15     1.845210907439   112.77745514   322.67725058
 C     13  12   5     2.358658441051    86.53568684   312.59762448
 H     19  13  12     2.094436169118   121.43313038   175.32022469
 H     16  15  12     2.071005189818   120.62548333   177.14241705

---------------------
BASIS SET INFORMATION
---------------------
There are 4 groups of distinct atoms

 Group   1 Type C   : 8s4p1d contracted to 4s2p1d pattern {5111/31/1}
 Group   2 Type H   : 4s contracted to 2s pattern {31}
 Group   3 Type Pd  : 7s6p5d1f contracted to 5s3p2d1f pattern {31111/411/41/1}
 Group   4 Type O   : 8s4p1d contracted to 4s2p1d pattern {5111/31/1}

Atom   0C    basis set group =>   1
Atom   1C    basis set group =>   1
Atom   2C    basis set group =>   1
Atom   3C    basis set group =>   1
Atom   4C    basis set group =>   1
Atom   5C    basis set group =>   1
Atom   6H    basis set group =>   2
Atom   7H    basis set group =>   2
Atom   8H    basis set group =>   2
Atom   9H    basis set group =>   2
Atom  10H    basis set group =>   2
Atom  11Pd   basis set group =>   3
Atom  12O    basis set group =>   4
Atom  13O    basis set group =>   4
Atom  14O    basis set group =>   4
Atom  15C    basis set group =>   1
Atom  16O    basis set group =>   4
Atom  17H    basis set group =>   2
Atom  18C    basis set group =>   1
Atom  19H    basis set group =>   2
Atom  20H    basis set group =>   2
---------------------------------
AUXILIARY/J BASIS SET INFORMATION
---------------------------------
There are 4 groups of distinct atoms

 Group   1 Type C   : 12s5p4d2f1g contracted to 6s4p3d1f1g pattern {711111/2111/211/2/1}
 Group   2 Type H   : 5s2p1d contracted to 3s1p1d pattern {311/2/1}
 Group   3 Type Pd  : 11s5p5d3f3g contracted to 8s5p5d2f3g pattern {41111111/11111/11111/21/111}
 Group   4 Type O   : 12s5p4d2f1g contracted to 6s4p3d1f1g pattern {711111/2111/211/2/1}

Atom   0C    basis set group =>   1
Atom   1C    basis set group =>   1
Atom   2C    basis set group =>   1
Atom   3C    basis set group =>   1
Atom   4C    basis set group =>   1
Atom   5C    basis set group =>   1
Atom   6H    basis set group =>   2
Atom   7H    basis set group =>   2
Atom   8H    basis set group =>   2
Atom   9H    basis set group =>   2
Atom  10H    basis set group =>   2
Atom  11Pd   basis set group =>   3
Atom  12O    basis set group =>   4
Atom  13O    basis set group =>   4
Atom  14O    basis set group =>   4
Atom  15C    basis set group =>   1
Atom  16O    basis set group =>   4
Atom  17H    basis set group =>   2
Atom  18C    basis set group =>   1
Atom  19H    basis set group =>   2
Atom  20H    basis set group =>   2
-------------------------
ECP PARAMETER INFORMATION
-------------------------

 Group 1, Type Pd ECP Def2-ECP (replacing 28 core electrons, lmax=3)

Atom  11Pd   ECP group =>   1

------------------------------------------------------------------------------
                           ORCA GTO INTEGRAL CALCULATION
                           -- RI-GTO INTEGRALS CHOSEN --
------------------------------------------------------------------------------
------------------------------------------------------------------------------
                   ___                                                        
                  /   \      - P O W E R E D   B Y -                         
                 /     \                                                     
                 |  |  |   _    _      __       _____    __    __             
                 |  |  |  | |  | |    /  \     |  _  \  |  |  /  |          
                  \  \/   | |  | |   /    \    | | | |  |  | /  /          
                 / \  \   | |__| |  /  /\  \   | |_| |  |  |/  /          
                |  |  |   |  __  | /  /__\  \  |    /   |      \           
                |  |  |   | |  | | |   __   |  |    \   |  |\   \          
                \     /   | |  | | |  |  |  |  | |\  \  |  | \   \       
                 \___/    |_|  |_| |__|  |__|  |_| \__\ |__|  \__/        
                                                                              
                      - O R C A' S   B I G   F R I E N D -                    
                                      &                                       
                       - I N T E G R A L  F E E D E R -                       
                                                                              
 v1 FN, 2020, v2 2021                                                         
------------------------------------------------------------------------------


Reading SHARK input file 7_15_orca.SHARKINP.tmp ... ok
----------------------
SHARK INTEGRAL PACKAGE
----------------------

Number of atoms                             ...     21
Number of basis functions                   ...    227
Number of shells                            ...    111
Maximum angular momentum                    ...      3
Integral batch strategy                     ... SHARK/LIBINT Hybrid
RI-J (if used) integral strategy            ... SPLIT-RIJ (Revised 2003 algorithm where possible)
Printlevel                                  ...      1
Contraction scheme used                     ... SEGMENTED contraction
Coulomb Range Separation                    ... NOT USED
Exchange Range Separation                   ... NOT USED
Finite Nucleus Model                        ... NOT USED
Auxiliary Coulomb fitting basis             ... AVAILABLE
   # of basis functions in Aux-J            ...    765
   # of shells in Aux-J                     ...    243
   Maximum angular momentum in Aux-J        ...      4
Auxiliary J/K fitting basis                 ... NOT available
Auxiliary Correlation fitting basis         ... NOT available
Auxiliary 'external' fitting basis          ... NOT available
Integral threshold                          ...     2.500000e-11
Primitive cut-off                           ...     2.500000e-12
Primitive pair pre-selection threshold      ...     2.500000e-12

Calculating pre-screening integrals         ... done (  0.1 sec) Dimension = 111
Organizing shell pair data                  ... done (  0.1 sec)
Shell pair information
Total number of shell pairs                 ...      6216
Shell pairs after pre-screening             ...      4978
Total number of primitive shell pairs       ...     21723
Primitive shell pairs kept                  ...     11815
          la=0 lb=0:   1727 shell pairs
          la=1 lb=0:   1622 shell pairs
          la=1 lb=1:    365 shell pairs
          la=2 lb=0:    734 shell pairs
          la=2 lb=1:    344 shell pairs
          la=2 lb=2:     88 shell pairs
          la=3 lb=0:     56 shell pairs
          la=3 lb=1:     27 shell pairs
          la=3 lb=2:     14 shell pairs
          la=3 lb=3:      1 shell pairs

Calculating one electron integrals          ... done (  0.0 sec)
Calculating ECP integrals                   ... done (  0.2 sec)
Calculating RI/J V-Matrix + Cholesky decomp.... done (  0.0 sec)
Calculating Nuclear repulsion               ... done (  0.0 sec) ENN=    940.184570032569 Eh

SHARK setup successfully completed in   0.6 seconds

Maximum memory used throughout the entire GTOINT-calculation: 45.8 MB
-------------------------------------------------------------------------------
                                 ORCA SCF
-------------------------------------------------------------------------------

------------
SCF SETTINGS
------------
Hamiltonian:
 Density Functional     Method          .... DFT(GTOs)
 Exchange Functional    Exchange        .... PBE
   PBE kappa parameter   XKappa         ....  1.024500
   PBE mue parameter    XMuePBE         ....  0.123457
 Correlation Functional Correlation     .... PBE
   PBE beta parameter  CBetaPBE         ....  0.030000
 LDA part of GGA corr.  LDAOpt          .... PW91-LDA
 Gradients option       PostSCFGGA      .... off
 Hybrid DFT is turned on
   Fraction HF Exchange ScalHFX         ....  0.420000
   Scaling of DF-GGA-X  ScalDFX         ....  0.580000
   Scaling of DF-GGA-C  ScalDFC         ....  1.000000
   Scaling of DF-LDA-C  ScalLDAC        ....  1.000000
   Perturbative correction              ....  0.000000
   Density functional embedding theory  .... OFF
 RI-approximation to the Coulomb term is turned on
   Number of AuxJ basis functions       .... 765
   RIJ-ON(X) (HFX calculated with O(N)) .... on
   Number of AuxJ basis functions       .... 765
   RIJ-COSX (HFX calculated with COS-X)).... on


General Settings:
 Integral files         IntName         .... 7_15_orca
 Hartree-Fock type      HFTyp           .... RHF
 Total Charge           Charge          ....    0
 Multiplicity           Mult            ....    1
 Number of Electrons    NEL             ....  106
 Basis Dimension        Dim             ....  227
 Nuclear Repulsion      ENuc            ....    940.1845700326 Eh

Convergence Acceleration:
 DIIS                   CNVDIIS         .... on
   Start iteration      DIISMaxIt       ....    12
   Startup error        DIISStart       ....  0.200000
   # of expansion vecs  DIISMaxEq       ....     5
   Bias factor          DIISBfac        ....   1.050
   Max. coefficient     DIISMaxC        ....  10.000
 Trust-Rad. Augm. Hess. CNVTRAH         .... auto
   Auto Start mean grad. ratio tolernc. ....  1.125000
   Auto Start start iteration           ....    20
   Auto Start num. interpolation iter.  ....    10
   Max. Number of Micro iterations      ....    16
   Max. Number of Macro iterations      .... Maxiter - #DIIS iter
   Number of Davidson start vectors     ....     2
   Converg. threshold I  (grad. norm)   ....   1.000e-05
   Converg. threshold II (energy diff.) ....   1.000e-08
   Grad. Scal. Fac. for Micro threshold ....   0.100
   Minimum threshold for Micro iter.    ....   0.010
   NR start threshold (gradient norm)   ....   0.001
   Initial trust radius                 ....   0.400
   Minimum AH scaling param. (alpha)    ....   1.000
   Maximum AH scaling param. (alpha)    .... 1000.000
   Orbital update algorithm             .... Taylor
   White noise on init. David. guess    .... on
   Maximum white noise                  ....   0.010
   Quad. conv. algorithm                .... NR
   COSX micro iterations for RIJONX calc.... off
 SOSCF                  CNVSOSCF        .... off
 Level Shifting         CNVShift        .... on
   Level shift para.    LevelShift      ....    0.2500
   Turn off err/grad.   ShiftErr        ....    0.0010
 Zerner damping         CNVZerner       .... off
 Static damping         CNVDamp         .... on
   Fraction old density DampFac         ....    0.7000
   Max. Damping (<1)    DampMax         ....    0.9800
   Min. Damping (>=0)   DampMin         ....    0.0000
   Turn off err/grad.   DampErr         ....    0.1000
 Fernandez-Rico         CNVRico         .... off

SCF Procedure:
 Maximum # iterations   MaxIter         ....   250
 SCF integral mode      SCFMode         .... Direct
   Integral package                     .... SHARK and LIBINT hybrid scheme
 Reset frequency        DirectResetFreq ....    20
 Integral Threshold     Thresh          ....  2.500e-11 Eh
 Primitive CutOff       TCut            ....  2.500e-12 Eh

Convergence Tolerance:
 Convergence Check Mode ConvCheckMode   .... Total+1el-Energy
 Convergence forced     ConvForced      .... 0
 Energy Change          TolE            ....  1.000e-08 Eh
 1-El. energy change                    ....  1.000e-05 Eh
 DIIS Error             TolErr          ....  5.000e-07


Diagonalization of the overlap matrix:
Smallest eigenvalue                        ... 6.159e-04
Time for diagonalization                   ...    0.008 sec
Threshold for overlap eigenvalues          ... 1.000e-08
Number of eigenvalues below threshold      ... 0
Time for construction of square roots      ...    0.003 sec
Total time needed                          ...    0.011 sec

--------------------------------
INITIAL GUESS: MINIMAL BASIS EHT
--------------------------------
The minimal basis has 81 functions
EHT matrix was diagonalized
Basis set overlap was calculated now projecting the orbitals
Using GuessMode=FMatrix for the initial guess
C*T matrix was formed
Effective Fockian was calculated
Effective Fockian was diagonalized
Initial density was built
                      ------------------
                      INITIAL GUESS DONE
                      ------------------
-------------------
DFT GRID GENERATION
-------------------

General Integration Accuracy     IntAcc      ... 4.159
Radial Grid Type                 RadialGrid  ... OptM3 with GC (2021)
Angular Grid (max. ang.)         AngularGrid ... 3 (Lebedev-194)
Angular grid pruning method      GridPruning ... 4 (adaptive)
Weight generation scheme         WeightScheme... Becke
Basis function cutoff            BFCut       ... 1.0000e-11
Integration weight cutoff        WCut        ... 1.0000e-14
Angular grids for H and He will be reduced by one unit
Partially contracted basis set               ... off
Rotationally invariant grid construction     ... off

Total number of grid points                  ...    56222
Total number of batches                      ...      890
Average number of points per batch           ...       63
Average number of grid points per atom       ...     2677
Time for grid setup =    0.674 sec

--------------------
COSX GRID GENERATION
--------------------

GRIDX 1
-------
General Integration Accuracy     IntAcc      ... 3.816
Radial Grid Type                 RadialGrid  ... OptM3 with GC (2021)
Angular Grid (max. ang.)         AngularGrid ... 1 (Lebedev-50)
Angular grid pruning method      GridPruning ... 4 (adaptive)
Weight generation scheme         WeightScheme... Becke
Basis function cutoff            BFCut       ... 1.0000e-11
Integration weight cutoff        WCut        ... 1.0000e-14
Angular grids for H and He will be reduced by one unit
Partially contracted basis set               ... on
Rotationally invariant grid construction     ... off

Total number of grid points                  ...    13550
Total number of batches                      ...      221
Average number of points per batch           ...       61
Average number of grid points per atom       ...      645
UseSFitting                                  ... on

GRIDX 2
-------
General Integration Accuracy     IntAcc      ... 4.020
Radial Grid Type                 RadialGrid  ... OptM3 with GC (2021)
Angular Grid (max. ang.)         AngularGrid ... 2 (Lebedev-110)
Angular grid pruning method      GridPruning ... 4 (adaptive)
Weight generation scheme         WeightScheme... Becke
Basis function cutoff            BFCut       ... 1.0000e-11
Integration weight cutoff        WCut        ... 1.0000e-14
Angular grids for H and He will be reduced by one unit
Partially contracted basis set               ... on
Rotationally invariant grid construction     ... off

Total number of grid points                  ...    30278
Total number of batches                      ...      482
Average number of points per batch           ...       62
Average number of grid points per atom       ...     1442
UseSFitting                                  ... on

GRIDX 3
-------
General Integration Accuracy     IntAcc      ... 4.338
Radial Grid Type                 RadialGrid  ... OptM3 with GC (2021)
Angular Grid (max. ang.)         AngularGrid ... 3 (Lebedev-194)
Angular grid pruning method      GridPruning ... 4 (adaptive)
Weight generation scheme         WeightScheme... Becke
Basis function cutoff            BFCut       ... 1.0000e-11
Integration weight cutoff        WCut        ... 1.0000e-14
Angular grids for H and He will be reduced by one unit
Partially contracted basis set               ... on
Rotationally invariant grid construction     ... off

Total number of grid points                  ...    65789
Total number of batches                      ...     1036
Average number of points per batch           ...       63
Average number of grid points per atom       ...     3133
UseSFitting                                  ... on

Time for X-Grid setup             =    1.773 sec

--------------
SCF ITERATIONS
--------------
ITER       Energy         Delta-E        Max-DP      RMS-DP      [F,P]     Damp
               ***  Starting incremental Fock matrix formation  ***
  0   -720.3744349162   0.000000000000 4.47052965  0.04378779  5.0922072 0.7000
  1   -714.5924122608   5.782022655410 4.10855232  0.05389240  3.9218989 0.7000
  2   -715.7337870849  -1.141374824073 1.79446836  0.02415559  2.6107532 0.7000
  3   -720.7791421938  -5.045355108906 0.84198296  0.01502897  1.9238472 0.7000
  4   -725.3529354662  -4.573793272354 0.61089404  0.01078231  1.2988893 0.7000
  5   -728.8021258331  -3.449190366996 0.44458537  0.00781563  0.9602563 0.7000
  6   -731.2210593550  -2.418933521880 0.31700575  0.00564502  0.7008611 0.7000
  7   -732.9522739033  -1.731214548309 0.22347677  0.00403113  0.4982541 0.7000
  8   -734.1876308951  -1.235356991748 0.15692584  0.00283833  0.3476348 0.7000
  9   -735.0622374131  -0.874606518011 0.11013721  0.00198625  0.2414264 0.7000
                               ***Turning on DIIS***
 10   -735.6794849392  -0.617247526120 0.07732640  0.00139363  0.1683976 0.7000
 11   -736.1143072400  -0.434822300820 0.05453473  0.00099079  0.1181418 0.7000
 12   -736.4201806838  -0.305873443790 0.12755964  0.00236302  0.0831059 0.0000
 13   -737.1392805593  -0.719099875459 0.00925940  0.00012075  0.0027015 0.0000
 14   -737.1395478977  -0.000267338394 0.00997617  0.00010050  0.0021677 0.0000
 15   -737.1396876720  -0.000139774301 0.00547183  0.00006701  0.0015746 0.0000
 16   -737.1397509121  -0.000063240123 0.00579280  0.00005387  0.0011560 0.0000
 17   -737.1397855608  -0.000034648706 0.00748305  0.00007870  0.0007967 0.0000
               *** Restarting incremental Fock matrix formation ***
                                   *** Resetting DIIS ***
 18   -737.1399977496  -0.000212188766 0.00221117  0.00005094  0.0004889 0.0000
 19   -737.1400016272  -0.000003877641 0.00061727  0.00001221  0.0008246 0.0000
 20   -737.1400038916  -0.000002264362 0.00112680  0.00000993  0.0002522 0.0000
 21   -737.1400047045  -0.000000812884 0.00040364  0.00000468  0.0001292 0.0000
 22   -737.1400049237  -0.000000219195 0.00067261  0.00000547  0.0000760 0.0000
 23   -737.1400050572  -0.000000133570 0.00021377  0.00000234  0.0000349 0.0000
 24   -737.1400050746  -0.000000017360 0.00017257  0.00000134  0.0000212 0.0000
 25   -737.1400050876  -0.000000012991 0.00004730  0.00000046  0.0000069 0.0000
 26   -737.1400050905  -0.000000002943 0.00000691  0.00000010  0.0000044 0.0000
                 **** Energy Check signals convergence ****

               *****************************************************
               *                     SUCCESS                       *
               *           SCF CONVERGED AFTER  27 CYCLES          *
               *****************************************************

Old exchange energy                            =    -37.388345830 Eh
New exchange energy                            =    -37.388341936 Eh
Exchange energy change after final integration =      0.000003894 Eh
Total energy after final integration           =   -737.140001200 Eh
Final COS-X integration done in                =    19.293 sec

----------------
TOTAL SCF ENERGY
----------------

Total Energy       :         -737.14000120 Eh          -20058.59919 eV

Components:
Nuclear Repulsion  :          940.18457003 Eh           25583.72280 eV
Electronic Energy  :        -1677.32457123 Eh          -45642.32199 eV
One Electron Energy:        -2927.19217545 Eh          -79652.94857 eV
Two Electron Energy:         1249.86760422 Eh           34010.62658 eV
Max COSX asymmetry :            0.00002639 Eh               0.00072 eV

Virial components:
Potential Energy   :        -1390.12578171 Eh          -37827.24562 eV
Kinetic Energy     :          652.98578051 Eh           17768.64643 eV
Virial Ratio       :            2.12887604


DFT components:
N(Alpha)           :       53.000186068249 electrons
N(Beta)            :       53.000186068249 electrons
N(Total)           :      106.000372136499 electrons
E(X)               :      -49.974004412263 Eh       
E(C)               :       -4.858459796819 Eh       
E(XC)              :      -54.832464209082 Eh       
DFET-embed. en.    :        0.000000000000 Eh       

---------------
SCF CONVERGENCE
---------------

  Last Energy change         ...   -3.7369e-09  Tolerance :   1.0000e-08
  Last MAX-Density change    ...    0.0000e+00  Tolerance :   1.0000e-07
  Last RMS-Density change    ...    0.0000e+00  Tolerance :   5.0000e-09
  Last DIIS Error            ...    3.0010e-06  Tolerance :   5.0000e-07

             **** THE GBW FILE WAS UPDATED (7_15_orca.gbw) ****
             **** DENSITY 7_15_orca.scfp WAS UPDATED ****
             **** ENERGY FILE WAS UPDATED (7_15_orca.en.tmp) ****
             **** THE GBW FILE WAS UPDATED (7_15_orca.gbw) ****
             **** DENSITY 7_15_orca.scfp WAS UPDATED ****
----------------
ORBITAL ENERGIES
----------------

  NO   OCC          E(Eh)            E(eV) 
   0   2.0000     -19.581224      -532.8322 
   1   2.0000     -19.573870      -532.6321 
   2   2.0000     -19.501976      -530.6757 
   3   2.0000     -19.492228      -530.4105 
   4   2.0000     -10.637756      -289.4681 
   5   2.0000     -10.564802      -287.4829 
   6   2.0000     -10.454820      -284.4901 
   7   2.0000     -10.454244      -284.4744 
   8   2.0000     -10.450205      -284.3645 
   9   2.0000     -10.449201      -284.3372 
  10   2.0000     -10.448513      -284.3185 
  11   2.0000     -10.446955      -284.2761 
  12   2.0000      -3.662971       -99.6745 
  13   2.0000      -2.310793       -62.8799 
  14   2.0000      -2.307730       -62.7965 
  15   2.0000      -2.275222       -61.9119 
  16   2.0000      -1.285035       -34.9676 
  17   2.0000      -1.199979       -32.6531 
  18   2.0000      -1.196989       -32.5717 
  19   2.0000      -1.086901       -29.5761 
  20   2.0000      -0.953208       -25.9381 
  21   2.0000      -0.837148       -22.7799 
  22   2.0000      -0.830906       -22.6101 
  23   2.0000      -0.783479       -21.3196 
  24   2.0000      -0.679290       -18.4844 
  25   2.0000      -0.673776       -18.3344 
  26   2.0000      -0.671036       -18.2598 
  27   2.0000      -0.661406       -17.9978 
  28   2.0000      -0.631808       -17.1924 
  29   2.0000      -0.587952       -15.9990 
  30   2.0000      -0.573221       -15.5981 
  31   2.0000      -0.559977       -15.2377 
  32   2.0000      -0.532280       -14.4841 
  33   2.0000      -0.515939       -14.0394 
  34   2.0000      -0.511709       -13.9243 
  35   2.0000      -0.502896       -13.6845 
  36   2.0000      -0.497235       -13.5304 
  37   2.0000      -0.480645       -13.0790 
  38   2.0000      -0.454219       -12.3599 
  39   2.0000      -0.449192       -12.2231 
  40   2.0000      -0.441526       -12.0145 
  41   2.0000      -0.434183       -11.8147 
  42   2.0000      -0.402670       -10.9572 
  43   2.0000      -0.393430       -10.7058 
  44   2.0000      -0.380636       -10.3576 
  45   2.0000      -0.370615       -10.0849 
  46   2.0000      -0.359029        -9.7697 
  47   2.0000      -0.346533        -9.4297 
  48   2.0000      -0.327382        -8.9085 
  49   2.0000      -0.322950        -8.7879 
  50   2.0000      -0.300766        -8.1842 
  51   2.0000      -0.289147        -7.8681 
  52   2.0000      -0.263843        -7.1795 
  53   0.0000      -0.064286        -1.7493 
  54   0.0000      -0.021678        -0.5899 
  55   0.0000       0.015820         0.4305 
  56   0.0000       0.018652         0.5075 
  57   0.0000       0.043237         1.1765 
  58   0.0000       0.058444         1.5903 
  59   0.0000       0.071627         1.9491 
  60   0.0000       0.092289         2.5113 
  61   0.0000       0.095422         2.5966 
  62   0.0000       0.155323         4.2266 
  63   0.0000       0.165984         4.5166 
  64   0.0000       0.171074         4.6552 
  65   0.0000       0.195822         5.3286 
  66   0.0000       0.207009         5.6330 
  67   0.0000       0.217240         5.9114 
  68   0.0000       0.226684         6.1684 
  69   0.0000       0.236639         6.4393 
  70   0.0000       0.249741         6.7958 
  71   0.0000       0.257327         7.0022 
  72   0.0000       0.297577         8.0975 
  73   0.0000       0.308359         8.3909 
  74   0.0000       0.311429         8.4744 
  75   0.0000       0.332364         9.0441 
  76   0.0000       0.334886         9.1127 
  77   0.0000       0.344300         9.3689 
  78   0.0000       0.346804         9.4370 
  79   0.0000       0.379472        10.3260 
  80   0.0000       0.430028        11.7017 
  81   0.0000       0.435178        11.8418 
  82   0.0000       0.459578        12.5058 
  83   0.0000       0.469249        12.7689 
  84   0.0000       0.488759        13.2998 
  85   0.0000       0.523477        14.2445 
  86   0.0000       0.526208        14.3188 
  87   0.0000       0.535587        14.5741 
  88   0.0000       0.555534        15.1168 
  89   0.0000       0.573570        15.6076 
  90   0.0000       0.587994        16.0001 
  91   0.0000       0.593167        16.1409 
  92   0.0000       0.601465        16.3667 
  93   0.0000       0.611767        16.6470 
  94   0.0000       0.614605        16.7243 
  95   0.0000       0.625910        17.0319 
  96   0.0000       0.627490        17.0749 
  97   0.0000       0.650915        17.7123 
  98   0.0000       0.653760        17.7897 
  99   0.0000       0.659837        17.9551 
 100   0.0000       0.677660        18.4401 
 101   0.0000       0.690632        18.7931 
 102   0.0000       0.721579        19.6352 
 103   0.0000       0.746523        20.3139 
 104   0.0000       0.760813        20.7028 
 105   0.0000       0.764166        20.7940 
 106   0.0000       0.788939        21.4681 
 107   0.0000       0.802387        21.8341 
 108   0.0000       0.829645        22.5758 
 109   0.0000       0.848918        23.1002 
 110   0.0000       0.856966        23.3192 
 111   0.0000       0.888477        24.1767 
 112   0.0000       0.915299        24.9066 
 113   0.0000       0.921095        25.0643 
 114   0.0000       0.940717        25.5982 
 115   0.0000       0.943626        25.6774 
 116   0.0000       0.963006        26.2047 
 117   0.0000       0.968403        26.3516 
 118   0.0000       0.974854        26.5271 
 119   0.0000       1.007192        27.4071 
 120   0.0000       1.027263        27.9532 
 121   0.0000       1.044863        28.4322 
 122   0.0000       1.052563        28.6417 
 123   0.0000       1.071087        29.1458 
 124   0.0000       1.085122        29.5277 
 125   0.0000       1.101302        29.9680 
 126   0.0000       1.113560        30.3015 
 127   0.0000       1.131227        30.7823 
 128   0.0000       1.137631        30.9565 
 129   0.0000       1.158183        31.5158 
 130   0.0000       1.168063        31.7846 
 131   0.0000       1.172266        31.8990 
 132   0.0000       1.187909        32.3247 
 133   0.0000       1.215983        33.0886 
 134   0.0000       1.224088        33.3091 
 135   0.0000       1.239580        33.7307 
 136   0.0000       1.277040        34.7500 
 137   0.0000       1.318952        35.8905 
 138   0.0000       1.333027        36.2735 
 139   0.0000       1.367755        37.2185 
 140   0.0000       1.412574        38.4381 
 141   0.0000       1.452817        39.5332 
 142   0.0000       1.478766        40.2393 
 143   0.0000       1.500917        40.8420 
 144   0.0000       1.526416        41.5359 
 145   0.0000       1.550449        42.1899 
 146   0.0000       1.554151        42.2906 
 147   0.0000       1.565145        42.5898 
 148   0.0000       1.582835        43.0711 
 149   0.0000       1.590464        43.2787 
 150   0.0000       1.600178        43.5431 
 151   0.0000       1.698000        46.2049 
 152   0.0000       1.748310        47.5739 
 153   0.0000       1.769834        48.1596 
 154   0.0000       1.824061        49.6352 
 155   0.0000       1.833415        49.8897 
 156   0.0000       1.848120        50.2899 
 157   0.0000       1.852724        50.4152 
 158   0.0000       1.863203        50.7003 
 159   0.0000       1.870527        50.8996 
 160   0.0000       1.878730        51.1228 
 161   0.0000       1.909142        51.9504 
 162   0.0000       1.935779        52.6752 
 163   0.0000       1.952358        53.1263 
 164   0.0000       1.960822        53.3567 
 165   0.0000       1.977015        53.7973 
 166   0.0000       1.999513        54.4095 
 167   0.0000       2.036411        55.4136 
 168   0.0000       2.043482        55.6060 
 169   0.0000       2.053818        55.8872 
 170   0.0000       2.081425        56.6384 
 171   0.0000       2.136378        58.1338 
 172   0.0000       2.151405        58.5427 
 173   0.0000       2.176502        59.2256 
 174   0.0000       2.184032        59.4305 
 175   0.0000       2.191276        59.6277 
 176   0.0000       2.219374        60.3922 
 177   0.0000       2.236613        60.8613 
 178   0.0000       2.244507        61.0761 
 179   0.0000       2.286398        62.2160 
 180   0.0000       2.350389        63.9573 
 181   0.0000       2.355451        64.0951 
 182   0.0000       2.367017        64.4098 
 183   0.0000       2.393335        65.1260 
 184   0.0000       2.410101        65.5822 
 185   0.0000       2.436366        66.2969 
 186   0.0000       2.456721        66.8508 
 187   0.0000       2.466751        67.1237 
 188   0.0000       2.492589        67.8268 
 189   0.0000       2.500765        68.0493 
 190   0.0000       2.535333        68.9899 
 191   0.0000       2.551560        69.4315 
 192   0.0000       2.577516        70.1378 
 193   0.0000       2.613170        71.1080 
 194   0.0000       2.619931        71.2919 
 195   0.0000       2.648991        72.0827 
 196   0.0000       2.683901        73.0327 
 197   0.0000       2.699047        73.4448 
 198   0.0000       2.711058        73.7716 
 199   0.0000       2.738497        74.5183 
 200   0.0000       2.757358        75.0315 
 201   0.0000       2.774820        75.5067 
 202   0.0000       2.797909        76.1350 
 203   0.0000       2.808465        76.4222 
 204   0.0000       2.817852        76.6776 
 205   0.0000       2.839345        77.2625 
 206   0.0000       2.875204        78.2383 
 207   0.0000       2.965270        80.6891 
 208   0.0000       2.986525        81.2675 
 209   0.0000       3.007805        81.8465 
 210   0.0000       3.055988        83.1577 
 211   0.0000       3.079389        83.7944 
 212   0.0000       3.148163        85.6659 
 213   0.0000       3.408519        92.7505 
 214   0.0000      13.290012       361.6396 
 215   0.0000      13.650035       371.4363 
 216   0.0000      13.739157       373.8615 
 217   0.0000      13.843650       376.7049 
 218   0.0000      13.906826       378.4240 
 219   0.0000      14.141231       384.8025 
 220   0.0000      14.149825       385.0363 
 221   0.0000      14.499570       394.5533 
 222   0.0000      25.497677       693.8271 
 223   0.0000      25.604056       696.7218 
 224   0.0000      25.664451       698.3652 
 225   0.0000      25.764087       701.0765 
 226   0.0000      51.570379      1403.3013 

                    ********************************
                    * MULLIKEN POPULATION ANALYSIS *
                    ********************************

-----------------------
MULLIKEN ATOMIC CHARGES
-----------------------
   0 C :   -0.182708
   1 C :   -0.221413
   2 C :   -0.223111
   3 C :   -0.217026
   4 C :   -0.428328
   5 C :   -0.168342
   6 H :    0.224558
   7 H :    0.222547
   8 H :    0.222045
   9 H :    0.240887
  10 H :    0.224689
  11 Pd:    0.435946
  12 O :   -0.463253
  13 O :   -0.479085
  14 O :   -0.366819
  15 C :    0.385400
  16 O :   -0.554666
  17 H :    0.517953
  18 C :    0.394675
  19 H :    0.189988
  20 H :    0.246065
Sum of atomic charges:    0.0000000

--------------------------------
MULLIKEN REDUCED ORBITAL CHARGES
--------------------------------
  0 C s       :     3.234672  s :     3.234672
      pz      :     0.930935  p :     2.907158
      px      :     0.940199
      py      :     1.036025
      dz2     :     0.007910  d :     0.040878
      dxz     :     0.005758
      dyz     :     0.007881
      dx2y2   :     0.009863
      dxy     :     0.009466
  1 C s       :     3.245052  s :     3.245052
      pz      :     1.010625  p :     2.936630
      px      :     1.022643
      py      :     0.903362
      dz2     :     0.006112  d :     0.039730
      dxz     :     0.006964
      dyz     :     0.009471
      dx2y2   :     0.008151
      dxy     :     0.009033
  2 C s       :     3.251514  s :     3.251514
      pz      :     0.987165  p :     2.931723
      px      :     0.961028
      py      :     0.983529
      dz2     :     0.006811  d :     0.039874
      dxz     :     0.005347
      dyz     :     0.012522
      dx2y2   :     0.007947
      dxy     :     0.007247
  3 C s       :     3.245911  s :     3.245911
      pz      :     0.933030  p :     2.931218
      px      :     0.969383
      py      :     1.028806
      dz2     :     0.009491  d :     0.039897
      dxz     :     0.005888
      dyz     :     0.008387
      dx2y2   :     0.008295
      dxy     :     0.007836
  4 C s       :     3.334699  s :     3.334699
      pz      :     1.033417  p :     3.051664
      px      :     0.984702
      py      :     1.033545
      dz2     :     0.006575  d :     0.041966
      dxz     :     0.008553
      dyz     :     0.006398
      dx2y2   :     0.012267
      dxy     :     0.008173
  5 C s       :     3.237394  s :     3.237394
      pz      :     1.006747  p :     2.889664
      px      :     0.995463
      py      :     0.887454
      dz2     :     0.006440  d :     0.041284
      dxz     :     0.007234
      dyz     :     0.010532
      dx2y2   :     0.008408
      dxy     :     0.008670
  6 H s       :     0.775442  s :     0.775442
  7 H s       :     0.777453  s :     0.777453
  8 H s       :     0.777955  s :     0.777955
  9 H s       :     0.759113  s :     0.759113
 10 H s       :     0.775311  s :     0.775311
 11 Pds       :     2.506491  s :     2.506491
      pz      :     2.069377  p :     6.288167
      px      :     2.111282
      py      :     2.107508
      dz2     :     1.910855  d :     8.764841
      dxz     :     1.858952
      dyz     :     1.925251
      dx2y2   :     1.693816
      dxy     :     1.375967
      f0      :     0.000399  f :     0.004555
      f+1     :     0.000419
      f-1     :     0.000412
      f+2     :     0.000508
      f-2     :     0.000566
      f+3     :     0.001276
      f-3     :     0.000975
 12 O s       :     3.807645  s :     3.807645
      pz      :     1.621095  p :     4.626888
      px      :     1.629789
      py      :     1.376004
      dz2     :     0.003580  d :     0.028721
      dxz     :     0.001708
      dyz     :     0.008202
      dx2y2   :     0.008621
      dxy     :     0.006609
 13 O s       :     3.815467  s :     3.815467
      pz      :     1.536166  p :     4.634038
      px      :     1.459329
      py      :     1.638543
      dz2     :     0.006158  d :     0.029580
      dxz     :     0.004640
      dyz     :     0.006218
      dx2y2   :     0.004565
      dxy     :     0.007999
 14 O s       :     3.781342  s :     3.781342
      pz      :     1.407774  p :     4.551886
      px      :     1.465824
      py      :     1.678288
      dz2     :     0.010914  d :     0.033591
      dxz     :     0.009685
      dyz     :     0.007415
      dx2y2   :     0.003272
      dxy     :     0.002305
 15 C s       :     3.061388  s :     3.061388
      pz      :     0.775638  p :     2.416473
      px      :     0.728567
      py      :     0.912268
      dz2     :     0.038599  d :     0.136739
      dxz     :     0.028966
      dyz     :     0.044307
      dx2y2   :     0.010784
      dxy     :     0.014083
 16 O s       :     3.786382  s :     3.786382
      pz      :     1.602285  p :     4.739590
      px      :     1.759314
      py      :     1.377992
      dz2     :     0.007295  d :     0.028693
      dxz     :     0.005589
      dyz     :     0.010035
      dx2y2   :     0.004030
      dxy     :     0.001744
 17 H s       :     0.482047  s :     0.482047
 18 C s       :     3.052196  s :     3.052196
      pz      :     0.762198  p :     2.416015
      px      :     0.839943
      py      :     0.813874
      dz2     :     0.017759  d :     0.137114
      dxz     :     0.013437
      dyz     :     0.032449
      dx2y2   :     0.033213
      dxy     :     0.040257
 19 H s       :     0.810012  s :     0.810012
 20 H s       :     0.753935  s :     0.753935


                     *******************************
                     * LOEWDIN POPULATION ANALYSIS *
                     *******************************

----------------------
LOEWDIN ATOMIC CHARGES
----------------------
   0 C :   -0.104750
   1 C :   -0.136036
   2 C :   -0.123861
   3 C :   -0.130632
   4 C :   -0.133961
   5 C :   -0.090423
   6 H :    0.144781
   7 H :    0.139917
   8 H :    0.136826
   9 H :    0.151321
  10 H :    0.141542
  11 Pd:   -0.297565
  12 O :   -0.190689
  13 O :   -0.169165
  14 O :   -0.027514
  15 C :    0.181836
  16 O :   -0.252535
  17 H :    0.359871
  18 C :    0.147101
  19 H :    0.113149
  20 H :    0.140790

-------------------------------
LOEWDIN REDUCED ORBITAL CHARGES
-------------------------------
  0 C s       :     2.883663  s :     2.883663
      pz      :     1.024443  p :     3.128412
      px      :     1.028065
      py      :     1.075904
      dz2     :     0.016556  d :     0.092675
      dxz     :     0.014489
      dyz     :     0.019222
      dx2y2   :     0.021765
      dxy     :     0.020643
  1 C s       :     2.892442  s :     2.892442
      pz      :     1.039851  p :     3.153149
      px      :     1.027860
      py      :     1.085438
      dz2     :     0.013257  d :     0.090446
      dxz     :     0.012111
      dyz     :     0.022954
      dx2y2   :     0.020494
      dxy     :     0.021631
  2 C s       :     2.893231  s :     2.893231
      pz      :     1.048781  p :     3.140747
      px      :     1.011763
      py      :     1.080202
      dz2     :     0.015614  d :     0.089884
      dxz     :     0.011922
      dyz     :     0.027638
      dx2y2   :     0.017845
      dxy     :     0.016864
  3 C s       :     2.891230  s :     2.891230
      pz      :     1.050761  p :     3.148566
      px      :     1.021639
      py      :     1.076166
      dz2     :     0.021339  d :     0.090836
      dxz     :     0.014635
      dyz     :     0.020460
      dx2y2   :     0.017383
      dxy     :     0.017020
  4 C s       :     2.892896  s :     2.892896
      pz      :     1.026654  p :     3.145072
      px      :     1.031696
      py      :     1.086721
      dz2     :     0.013110  d :     0.095992
      dxz     :     0.020331
      dyz     :     0.014692
      dx2y2   :     0.028132
      dxy     :     0.019726
  5 C s       :     2.881873  s :     2.881873
      pz      :     1.034058  p :     3.114342
      px      :     0.990230
      py      :     1.090054
      dz2     :     0.013856  d :     0.094208
      dxz     :     0.012139
      dyz     :     0.025948
      dx2y2   :     0.022255
      dxy     :     0.020010
  6 H s       :     0.855219  s :     0.855219
  7 H s       :     0.860083  s :     0.860083
  8 H s       :     0.863174  s :     0.863174
  9 H s       :     0.848679  s :     0.848679
 10 H s       :     0.858458  s :     0.858458
 11 Pds       :     2.500086  s :     2.500086
      pz      :     2.126074  p :     6.648779
      px      :     2.276713
      py      :     2.245992
      dz2     :     1.968339  d :     9.142512
      dxz     :     1.925463
      dyz     :     1.954296
      dx2y2   :     1.779884
      dxy     :     1.514531
      f0      :     0.000518  f :     0.006188
      f+1     :     0.000546
      f-1     :     0.000600
      f+2     :     0.000704
      f-2     :     0.000729
      f+3     :     0.001836
      f-3     :     0.001254
 12 O s       :     3.483926  s :     3.483926
      pz      :     1.589136  p :     4.651283
      px      :     1.603206
      py      :     1.458942
      dz2     :     0.007231  d :     0.055479
      dxz     :     0.002864
      dyz     :     0.012986
      dx2y2   :     0.019038
      dxy     :     0.013359
 13 O s       :     3.470392  s :     3.470392
      pz      :     1.534189  p :     4.641091
      px      :     1.477793
      py      :     1.629108
      dz2     :     0.008646  d :     0.057682
      dxz     :     0.012110
      dyz     :     0.011341
      dx2y2   :     0.010012
      dxy     :     0.015574
 14 O s       :     3.415729  s :     3.415729
      pz      :     1.480735  p :     4.542662
      px      :     1.435515
      py      :     1.626412
      dz2     :     0.023470  d :     0.069122
      dxz     :     0.017108
      dyz     :     0.016509
      dx2y2   :     0.006294
      dxy     :     0.005741
 15 C s       :     2.849981  s :     2.849981
      pz      :     0.933487  p :     2.667707
      px      :     0.759535
      py      :     0.974686
      dz2     :     0.091187  d :     0.300476
      dxz     :     0.061970
      dyz     :     0.099768
      dx2y2   :     0.020213
      dxy     :     0.027338
 16 O s       :     3.465154  s :     3.465154
      pz      :     1.625699  p :     4.733762
      px      :     1.727166
      py      :     1.380896
      dz2     :     0.013220  d :     0.053620
      dxz     :     0.006924
      dyz     :     0.021065
      dx2y2   :     0.008780
      dxy     :     0.003630
 17 H s       :     0.640129  s :     0.640129
 18 C s       :     2.855763  s :     2.855763
      pz      :     0.808603  p :     2.695740
      px      :     0.929457
      py      :     0.957680
      dz2     :     0.037537  d :     0.301396
      dxz     :     0.028177
      dyz     :     0.072835
      dx2y2   :     0.074845
      dxy     :     0.088002
 19 H s       :     0.886851  s :     0.886851
 20 H s       :     0.859210  s :     0.859210


                      *****************************
                      * MAYER POPULATION ANALYSIS *
                      *****************************

  NA   - Mulliken gross atomic population
  ZA   - Total nuclear charge
  QA   - Mulliken gross atomic charge
  VA   - Mayer's total valence
  BVA  - Mayer's bonded valence
  FA   - Mayer's free valence

  ATOM       NA         ZA         QA         VA         BVA        FA
  0 C      6.1827     6.0000    -0.1827     3.7798     3.7798    -0.0000
  1 C      6.2214     6.0000    -0.2214     3.8339     3.8339    -0.0000
  2 C      6.2231     6.0000    -0.2231     3.8126     3.8126    -0.0000
  3 C      6.2170     6.0000    -0.2170     3.8260     3.8260     0.0000
  4 C      6.4283     6.0000    -0.4283     3.7796     3.7796     0.0000
  5 C      6.1683     6.0000    -0.1683     3.7924     3.7924    -0.0000
  6 H      0.7754     1.0000     0.2246     0.9131     0.9131    -0.0000
  7 H      0.7775     1.0000     0.2225     0.9119     0.9119     0.0000
  8 H      0.7780     1.0000     0.2220     0.9117     0.9117     0.0000
  9 H      0.7591     1.0000     0.2409     0.9029     0.9029    -0.0000
 10 H      0.7753     1.0000     0.2247     0.9108     0.9108     0.0000
 11 Pd    17.5641    18.0000     0.4359     2.3990     2.3990     0.0000
 12 O      8.4633     8.0000    -0.4633     2.1640     2.1640    -0.0000
 13 O      8.4791     8.0000    -0.4791     2.1626     2.1626     0.0000
 14 O      8.3668     8.0000    -0.3668     2.2802     2.2802    -0.0000
 15 C      5.6146     6.0000     0.3854     3.9084     3.9084     0.0000
 16 O      8.5547     8.0000    -0.5547     2.0210     2.0210     0.0000
 17 H      0.4820     1.0000     0.5180     0.7401     0.7401    -0.0000
 18 C      5.6053     6.0000     0.3947     3.9134     3.9134    -0.0000
 19 H      0.8100     1.0000     0.1900     0.9154     0.9154    -0.0000
 20 H      0.7539     1.0000     0.2461     0.8956     0.8956    -0.0000

  Mayer bond orders larger than 0.100000
B(  0-C ,  1-C ) :   1.4450 B(  0-C ,  4-C ) :   1.3439 B(  0-C ,  6-H ) :   0.9086 
B(  1-C ,  2-C ) :   1.4181 B(  1-C ,  7-H ) :   0.9158 B(  2-C ,  3-C ) :   1.4178 
B(  2-C ,  8-H ) :   0.9182 B(  3-C ,  5-C ) :   1.4414 B(  3-C , 10-H ) :   0.9156 
B(  4-C ,  5-C ) :   1.3691 B(  4-C , 11-Pd) :   0.8369 B(  5-C ,  9-H ) :   0.9069 
B( 11-Pd, 12-O ) :   0.4054 B( 11-Pd, 13-O ) :   0.5453 B( 11-Pd, 14-O ) :   0.4088 
B( 12-O , 13-O ) :   0.1149 B( 12-O , 18-C ) :   1.5612 B( 13-O , 18-C ) :   1.4369 
B( 14-O , 15-C ) :   1.7346 B( 15-C , 16-O ) :   1.2603 B( 15-C , 20-H ) :   0.8753 
B( 16-O , 17-H ) :   0.6054 B( 18-C , 19-H ) :   0.8843 


------------------
HIRSHFELD ANALYSIS
------------------

Total integrated alpha density =     53.000186069
Total integrated beta density  =     53.000186069

  ATOM     CHARGE      SPIN    
   0 C   -0.065966    0.000000
   1 C   -0.048831    0.000000
   2 C   -0.040175    0.000000
   3 C   -0.042333    0.000000
   4 C   -0.149406    0.000000
   5 C   -0.051266    0.000000
   6 H    0.029192    0.000000
   7 H    0.045908    0.000000
   8 H    0.044098    0.000000
   9 H    0.038993    0.000000
  10 H    0.047944    0.000000
  11 Pd   0.530104    0.000000
  12 O   -0.343428    0.000000
  13 O   -0.318309    0.000000
  14 O   -0.219076    0.000000
  15 C    0.257405    0.000000
  16 O   -0.187969    0.000000
  17 H    0.142053    0.000000
  18 C    0.181307    0.000000
  19 H    0.063349    0.000000
  20 H    0.086036    0.000000

  TOTAL  -0.000372    0.000000

-------
TIMINGS
-------

Total SCF time: 0 days 0 hours 3 min 29 sec 

Total time                  ....     209.093 sec
Sum of individual times     ....     208.817 sec  ( 99.9%)

Fock matrix formation       ....     205.406 sec  ( 98.2%)
  Split-RI-J                ....      19.685 sec  (  9.6% of F)
  Chain of spheres X        ....     164.841 sec  ( 80.3% of F)
  XC integration            ....      20.609 sec  ( 10.0% of F)
    Basis function eval.    ....       8.116 sec  ( 39.4% of XC)
    Density eval.           ....       5.004 sec  ( 24.3% of XC)
    XC-Functional eval.     ....       1.821 sec  (  8.8% of XC)
    XC-Potential eval.      ....       5.036 sec  ( 24.4% of XC)
Diagonalization             ....       0.257 sec  (  0.1%)
Density matrix formation    ....       0.027 sec  (  0.0%)
Population analysis         ....       0.556 sec  (  0.3%)
Initial guess               ....       0.027 sec  (  0.0%)
Orbital Transformation      ....       0.000 sec  (  0.0%)
Orbital Orthonormalization  ....       0.000 sec  (  0.0%)
DIIS solution               ....       0.097 sec  (  0.0%)
Grid generation             ....       2.447 sec  (  1.2%)

Maximum memory used throughout the entire SCF-calculation: 112.2 MB


-------------------------------------------------------------------------------
                          DFT DISPERSION CORRECTION                            
                                                                               
                              DFTD3 V3.1  Rev 1                                
                          USING Becke-Johnson damping                          
-------------------------------------------------------------------------------
The PBEh-3c composite method is recognized
Using three-body term ABC
Active option DFTDOPT                   ...         4   

molecular C6(AA) [au] = 6826.823847 


            DFT-D V3
 parameters
 s6 scaling factor         :     1.0000 
 a1 scaling factor         :     0.4860 
 s8 scaling factor         :     0.0000 
 a2 scaling factor         :     4.5000 
 Damping factor alpha9(ATM):    16.0000 
 ad hoc parameters k1-k3   :    16.0000     1.3333    -4.0000 

 Edisp/kcal,au: -8.523918841638  -0.013583727871 
 E6   /kcal   :  -8.579406882 
 E8   /kcal   :  -0.000000000 
 E6(ABC)      :   0.055488040 
 % E8         :   0.000000000 
 % E6(ABC)    :  -0.650968662 

-------------------------   ----------------
Dispersion correction           -0.013583728
-------------------------   ----------------

 ** NOTE ** -> element pd will be treated as ni
------------------   -----------------
gCP correction             0.052072547
------------------   -----------------

-------------------------   --------------------
FINAL SINGLE POINT ENERGY      -737.101512380966
-------------------------   --------------------

------------------------------------------------------------------------------
                         ORCA SCF GRADIENT CALCULATION
------------------------------------------------------------------------------

 ... reading COSX grid (gridx3)
Gradient of the Kohn-Sham DFT energy:
Kohn-Sham wavefunction type      ... RKS
Hartree-Fock exchange scaling    ...    0.420
Number of operators              ...    1
Number of atoms                  ...   21
Basis set dimensions             ...  227
Integral neglect threshold       ... 2.5e-11
Integral primitive cutoff        ... 2.5e-12
SHARK Integral package           ... ON

Nuc. rep. gradient       (SHARK) ... done (  0.0 sec)
HCore & Overlap gradient (SHARK) ... done (  0.4 sec)
ECP gradient             (SHARK) ... done (  1.1 sec)
RI-J gradient            (SHARK) ... done (  2.8 sec)
COSX-gradient                    ... done ( 23.5 sec)
Exchange-correlation gradient    ... done
Dispersion correction            ... done
gCP correction                   ... done

------------------
CARTESIAN GRADIENT
------------------

   1   C   :   -0.003919590    0.000231041    0.003715858
   2   C   :   -0.003483005    0.003845906   -0.003376221
   3   C   :    0.003070915    0.002417394    0.002672139
   4   C   :    0.002220648   -0.003422376    0.004490471
   5   C   :    0.006894482    0.011559943    0.007781479
   6   C   :   -0.003452977    0.002409411    0.002149431
   7   H   :   -0.004870132   -0.002872552    0.003975750
   8   H   :    0.000056380    0.001256959   -0.007433433
   9   H   :    0.001267026   -0.001466772   -0.003656005
  10   H   :   -0.007548770    0.001423240    0.001227749
  11   H   :    0.005478811   -0.001947964   -0.002970837
  12   Pd  :   -0.005053501   -0.001124060    0.003128637
  13   O   :   -0.005077933   -0.000194538   -0.004903580
  14   O   :    0.000430912    0.002171274    0.002134880
  15   O   :   -0.010281441    0.003971039    0.027702287
  16   C   :    0.023968992    0.002894797   -0.034554227
  17   O   :    0.011468312   -0.027767268   -0.008621974
  18   H   :   -0.009980529    0.013160427    0.010163369
  19   C   :    0.005154809    0.001688219    0.003743664
  20   H   :    0.003277468   -0.004029252   -0.004048151
  21   H   :   -0.009667567   -0.002777839   -0.001155501

Difference to translation invariance:
           :   -0.0000466868    0.0014270325    0.0021657859

Difference to rotation invariance:
           :    0.0068303396   -0.0003272072    0.0057251174

Norm of the cartesian gradient     ...    0.0701407354
RMS gradient                       ...    0.0088369020
MAX gradient                       ...    0.0345542269

-------
TIMINGS
-------

Total SCF gradient time            ...       33.204 sec

One electron gradient       ....       1.583 sec  (  4.8%)
RI-J Coulomb gradient       ....       2.838 sec  (  8.5%)
COSX gradient               ....      23.528 sec  ( 70.9%)
XC gradient                 ....       4.376 sec  ( 13.2%)

Maximum memory used throughout the entire SCFGRAD-calculation: 83.9 MB

                            ***************************************
                            *     ORCA property calculations      *
                            ***************************************

                                    ---------------------
                                    Active property flags
                                    ---------------------
   (+) Dipole Moment


------------------------------------------------------------------------------
                       ORCA ELECTRIC PROPERTIES CALCULATION
------------------------------------------------------------------------------

Dipole Moment Calculation                       ... on
Quadrupole Moment Calculation                   ... off
Polarizability Calculation                      ... off
GBWName                                         ... 7_15_orca.gbw
Electron density                                ... 7_15_orca.scfp
The origin for moment calculation is the CENTER OF MASS  = ( 1.184083,  0.966077  0.026247)

-------------
DIPOLE MOMENT
-------------
                                X             Y             Z
Electronic contribution:     45.14424      35.42848      -2.36652
Nuclear contribution   :    -45.94634     -34.98140       2.80479
                        -----------------------------------------
Total Dipole Moment    :     -0.80210       0.44708       0.43827
                        -----------------------------------------
Magnitude (a.u.)       :      1.01751
Magnitude (Debye)      :      2.58630



--------------------
Rotational spectrum 
--------------------
 
Rotational constants in cm-1:     0.027718     0.019940     0.013990 
Rotational constants in MHz :   830.977711   597.793669   419.413585 

 Dipole components along the rotational axes: 
x,y,z [a.u.] :    -0.201248     0.997397    -0.004880 
x,y,z [Debye]:    -0.511532     2.535182    -0.012404 

 

Timings for individual modules:

Sum of individual times         ...      242.991 sec (=   4.050 min)
GTO integral calculation        ...        0.645 sec (=   0.011 min)   0.3 %
SCF iterations                  ...      209.117 sec (=   3.485 min)  86.1 %
SCF Gradient evaluation         ...       33.229 sec (=   0.554 min)  13.7 %
                             ****ORCA TERMINATED NORMALLY****
TOTAL RUN TIME: 0 days 0 hours 4 minutes 3 seconds 283 msec
