
                                 *****************
                                 * O   R   C   A *
                                 *****************

                                            #,                                       
                                            ###                                      
                                            ####                                     
                                            #####                                    
                                            ######                                   
                                           ########,                                 
                                     ,,################,,,,,                         
                               ,,#################################,,                 
                          ,,##########################################,,             
                       ,#########################################, ''#####,          
                    ,#############################################,,   '####,        
                  ,##################################################,,,,####,       
                ,###########''''           ''''###############################       
              ,#####''   ,,,,##########,,,,          '''####'''          '####       
            ,##' ,,,,###########################,,,                        '##       
           ' ,,###''''                  '''############,,,                           
         ,,##''                                '''############,,,,        ,,,,,,###''
      ,#''                                            '''#######################'''  
     '                                                          ''''####''''         
             ,#######,   #######,   ,#######,      ##                                
            ,#'     '#,  ##    ##  ,#'     '#,    #''#        ######   ,####,        
            ##       ##  ##   ,#'  ##            #'  '#       #        #'  '#        
            ##       ##  #######   ##           ,######,      #####,   #    #        
            '#,     ,#'  ##    ##  '#,     ,#' ,#      #,         ##   #,  ,#        
             '#######'   ##     ##  '#######'  #'      '#     #####' # '####'        



                  #######################################################
                  #                        -***-                        #
                  #          Department of theory and spectroscopy      #
                  #    Directorship and core code : Frank Neese         #
                  #        Max Planck Institute fuer Kohlenforschung    #
                  #                Kaiser Wilhelm Platz 1               #
                  #                 D-45470 Muelheim/Ruhr               #
                  #                      Germany                        #
                  #                                                     #
                  #                  All rights reserved                #
                  #                        -***-                        #
                  #######################################################


                         Program Version 5.0.3 -  RELEASE  -


 With contributions from (in alphabetic order):
   Daniel Aravena         : Magnetic Suceptibility
   Michael Atanasov       : Ab Initio Ligand Field Theory (pilot matlab implementation)
   Alexander A. Auer      : GIAO ZORA, VPT2 properties, NMR spectrum
   Ute Becker             : Parallelization
   Giovanni Bistoni       : ED, misc. LED, open-shell LED, HFLD
   Martin Brehm           : Molecular dynamics
   Dmytro Bykov           : SCF Hessian
   Vijay G. Chilkuri      : MRCI spin determinant printing, contributions to CSF-ICE
   Dipayan Datta          : RHF DLPNO-CCSD density
   Achintya Kumar Dutta   : EOM-CC, STEOM-CC
   Dmitry Ganyushin       : Spin-Orbit,Spin-Spin,Magnetic field MRCI
   Miquel Garcia          : C-PCM and meta-GGA Hessian, CC/C-PCM, Gaussian charge scheme
   Yang Guo               : DLPNO-NEVPT2, F12-NEVPT2, CIM, IAO-localization
   Andreas Hansen         : Spin unrestricted coupled pair/coupled cluster methods
   Benjamin Helmich-Paris : MC-RPA, TRAH-SCF, COSX integrals
   Lee Huntington         : MR-EOM, pCC
   Robert Izsak           : Overlap fitted RIJCOSX, COSX-SCS-MP3, EOM
   Marcus Kettner         : VPT2
   Christian Kollmar      : KDIIS, OOCD, Brueckner-CCSD(T), CCSD density, CASPT2, CASPT2-K
   Simone Kossmann        : Meta GGA functionals, TD-DFT gradient, OOMP2, MP2 Hessian
   Martin Krupicka        : Initial AUTO-CI
   Lucas Lang             : DCDCAS
   Marvin Lechner         : AUTO-CI (C++ implementation), FIC-MRCC
   Dagmar Lenk            : GEPOL surface, SMD
   Dimitrios Liakos       : Extrapolation schemes; Compound Job, initial MDCI parallelization
   Dimitrios Manganas     : Further ROCIS development; embedding schemes
   Dimitrios Pantazis     : SARC Basis sets
   Anastasios Papadopoulos: AUTO-CI, single reference methods and gradients
   Taras Petrenko         : DFT Hessian,TD-DFT gradient, ASA, ECA, R-Raman, ABS, FL, XAS/XES, NRVS
   Peter Pinski           : DLPNO-MP2, DLPNO-MP2 Gradient
   Christoph Reimann      : Effective Core Potentials
   Marius Retegan         : Local ZFS, SOC
   Christoph Riplinger    : Optimizer, TS searches, QM/MM, DLPNO-CCSD(T), (RO)-DLPNO pert. Triples
   Tobias Risthaus        : Range-separated hybrids, TD-DFT gradient, RPA, STAB
   Michael Roemelt        : Original ROCIS implementation
   Masaaki Saitow         : Open-shell DLPNO-CCSD energy and density
   Barbara Sandhoefer     : DKH picture change effects
   Avijit Sen             : IP-ROCIS
   Kantharuban Sivalingam : CASSCF convergence, NEVPT2, FIC-MRCI
   Bernardo de Souza      : ESD, SOC TD-DFT
   Georgi Stoychev        : AutoAux, RI-MP2 NMR, DLPNO-MP2 response
   Willem Van den Heuvel  : Paramagnetic NMR
   Boris Wezisla          : Elementary symmetry handling
   Frank Wennmohs         : Technical directorship


 We gratefully acknowledge several colleagues who have allowed us to
 interface, adapt or use parts of their codes:
   Stefan Grimme, W. Hujo, H. Kruse, P. Pracht,  : VdW corrections, initial TS optimization,
                  C. Bannwarth, S. Ehlert          DFT functionals, gCP, sTDA/sTD-DF
   Ed Valeev, F. Pavosevic, A. Kumar             : LibInt (2-el integral package), F12 methods
   Garnet Chan, S. Sharma, J. Yang, R. Olivares  : DMRG
   Ulf Ekstrom                                   : XCFun DFT Library
   Mihaly Kallay                                 : mrcc  (arbitrary order and MRCC methods)
   Jiri Pittner, Ondrej Demel                    : Mk-CCSD
   Frank Weinhold                                : gennbo (NPA and NBO analysis)
   Christopher J. Cramer and Donald G. Truhlar   : smd solvation model
   Lars Goerigk                                  : TD-DFT with DH, B97 family of functionals
   V. Asgeirsson, H. Jonsson                     : NEB implementation
   FAccTs GmbH                                   : IRC, NEB, NEB-TS, DLPNO-Multilevel, CI-OPT
                                                   MM, QMMM, 2- and 3-layer-ONIOM, Crystal-QMMM,
                                                   LR-CPCM, SF, NACMEs, symmetry and pop. for TD-DFT,
                                                   nearIR, NL-DFT gradient (VV10), updates on ESD,
                                                   ML-optimized integration grids
   S Lehtola, MJT Oliveira, MAL Marques          : LibXC Library
   Liviu Ungur et al                             : ANISO software


 Your calculation uses the libint2 library for the computation of 2-el integrals
 For citations please refer to: http://libint.valeyev.net

 Your ORCA version has been built with support for libXC version: 5.1.0
 For citations please refer to: https://tddft.org/programs/libxc/

 This ORCA versions uses:
   CBLAS   interface :  Fast vector & matrix operations
   LAPACKE interface :  Fast linear algebra routines
   SCALAPACK package :  Parallel linear algebra routines
   Shared memory     :  Shared parallel matrices
   BLAS/LAPACK       :  OpenBLAS 0.3.15  USE64BITINT DYNAMIC_ARCH NO_AFFINITY SkylakeX SINGLE_THREADED
        Core in use  :  SkylakeX
   Copyright (c) 2011-2014, The OpenBLAS Project


Your calculation utilizes the geometrical counterpoise correction gCP
Please cite in your paper:
H.Kruse, S. Grimme J.Chem.Phys., 136, (2012), 154101 
   

Your calculation utilizes the atom-pairwise dispersion correction
with the Becke-Johnson damping scheme (D3BJ)
Cite in your paper:
S.Grimme, S.Ehrlich, L.Goerigk, J Comput Chem, (2011), 32, 1456–1465 
S.Grimme, J.Antony, S.Ehrlich and H.Krieg, J.Chem.Phys., 132, (2010), 154104 
   

Your calculation employs the composite approach PBEh-3c.
Please cite in your paper:
S. Grimme, J. G. Brandenburg, C. Bannwarth, A. Hansen J.Chem.Phys., 143, (2015), 054107 
   

================================================================================

cite the ECPs for Pd [Def2-ECP] as follows:
Ce-Yb(ecp-28): M. Dolg, H. Stoll, H.Preuss, J. Chem. Phys., 1989, 90, 1730-1734.
Y-Cd(ecp-28), Hf-Hg(ecp-46): D. Andrae,U. Haeussermann, M. Dolg, H. Stoll, H. Preuss, Theor. Chim. Acta, 1990, 77, 123-141.
In-Sb(ecp-28), Tl-Bi(ecp-46): B. Metz, H. Stoll, M. Dolg, J. Chem. Phys., 2000, 113, 2563-2569.
Te-Xe(ecp-28), Po-Rn(ecp-46): K. A. Peterson, D. Figgen, E. Goll, H. Stoll, M. Dolg, J. Chem. Phys., 2003, 119, 11113-11123.
Rb(ecp-28), Cs(ecp-46): T. Leininger, A. Nicklass, W. Kuechle, H. Stoll, M. Dolg, A. Bergner, Chem. Phys. Lett., 1996, 255, 274-280.
Sr(ecp-28), Ba(ecp-46): M. Kaupp, P. V. Schleyer, H. Stoll and H. Preuss, J. Chem. Phys., 1991, 94, 1360-1366.
La(ecp-46): M. Dolg, H. Stoll, A. Savin, H. Preuss, Theor. Chim. Acta, 1989, 75, 173-194.
Lu(ecp-28): X. Cao, M. Dolg, J. Chem. Phys., 2001, 115, 7348-7355.

ECP parameters for Pd [Def2-ECP] have been obtained from:
TURBOMOLE (7.0.2)

----- Orbital basis set information -----
Your calculation utilizes the basis: def2-mSVP

----- AuxJ basis set information -----
Your calculation utilizes the auxiliary basis: def2/J
   F. Weigend, Phys. Chem. Chem. Phys. 8, 1057 (2006).

================================================================================
                                        WARNINGS
                       Please study these warnings very carefully!
================================================================================


INFO   : the flag for use of the SHARK integral package has been found!

================================================================================
                                       INPUT FILE
================================================================================
NAME = 7_28_orca.inp
|  1> ! EnGrad PBEh-3c
|  2> %output 
|  3> xyzfile=True 
|  4> end 
|  5> %scf 
|  6> maxiter 250 
|  7> end
|  8> %output
|  9> Print[P_Hirshfeld] = 1
| 10> end
| 11> % maxcore
| 12> 4000
| 13> *xyz 0 1
| 14> Pd   0.28826594   0.22333178  -0.12284507 
| 15> O    1.62668992   1.41933682   0.71209324 
| 16> C    1.36686103   2.67295045   0.50736425 
| 17> O    0.27361772   3.10561811   0.21860877 
| 18> C    2.58166104   3.58757853   0.66392600 
| 19> H    2.26294952   4.54916441   1.06978128 
| 20> H    3.00646099   3.78867899  -0.32787646 
| 21> H    3.37338200   3.16146792   1.28706349 
| 22> N   -1.41121354  -0.72965386  -1.03093206 
| 23> C   -1.18595170  -1.89253807  -1.89022559 
| 24> H   -0.55183204  -1.63513488  -2.72774695 
| 25> H   -2.15215114  -2.27603407  -2.22860341 
| 26> H   -0.68261654  -2.65674072  -1.31399193 
| 27> C   -2.02869183   0.32590330  -1.82731836 
| 28> H   -2.17115574   1.22057752  -1.23127339 
| 29> H   -2.99967478  -0.01571234  -2.19108394 
| 30> H   -1.38767662   0.58240758  -2.66651149 
| 31> C   -1.56409251  -0.92141208   1.37528645 
| 32> C   -1.53154076  -2.03655584   2.24072734 
| 33> C   -1.19051458  -1.90293319   3.57576232 
| 34> C   -0.97535565  -0.61695794   4.02884621 
| 35> C   -0.90666748   0.47232695   3.14512872 
| 36> C   -1.11950997   0.42846249   1.74806961 
| 37> H   -0.90331911  -0.48288549   5.10061978 
| 38> H   -0.75389971   1.41893118   3.62483205 
| 39> H   -1.84954718  -3.02681795   1.88858420 
| 40> H   -1.22610845  -2.74919043   4.25915903 
| 41> H   -0.81849888   1.48054940   1.08989609 
| 42> C   -2.28901994  -1.12249648   0.08560214 
| 43> H   -3.16446451  -0.47597356   0.13566221 
| 44> H   -2.65006044  -2.14911293  -0.06505269 
| 45> O    1.78344292   0.04782609  -1.48082632 
| 46> C    2.18896033  -0.77839849  -2.39522038 
| 47> O    1.63298881  -1.75207536  -2.86645153 
| 48> C    3.54695107  -0.39855409  -2.97506179 
| 49> H    4.00843467  -1.29327001  -3.42650610 
| 50> H    4.20574090   0.03938675  -2.21800594 
| 51> H    3.39060110   0.34781418  -3.76932993 
| 52> *
| 53> 
| 54>                          ****END OF INPUT****
================================================================================

                     *******************************
                     * Energy+Gradient Calculation *
                     *******************************

---------------------------------
CARTESIAN COORDINATES (ANGSTROEM)
---------------------------------
  Pd     0.288266    0.223332   -0.122845
  O      1.626690    1.419337    0.712093
  C      1.366861    2.672950    0.507364
  O      0.273618    3.105618    0.218609
  C      2.581661    3.587579    0.663926
  H      2.262950    4.549164    1.069781
  H      3.006461    3.788679   -0.327876
  H      3.373382    3.161468    1.287063
  N     -1.411214   -0.729654   -1.030932
  C     -1.185952   -1.892538   -1.890226
  H     -0.551832   -1.635135   -2.727747
  H     -2.152151   -2.276034   -2.228603
  H     -0.682617   -2.656741   -1.313992
  C     -2.028692    0.325903   -1.827318
  H     -2.171156    1.220578   -1.231273
  H     -2.999675   -0.015712   -2.191084
  H     -1.387677    0.582408   -2.666511
  C     -1.564093   -0.921412    1.375286
  C     -1.531541   -2.036556    2.240727
  C     -1.190515   -1.902933    3.575762
  C     -0.975356   -0.616958    4.028846
  C     -0.906667    0.472327    3.145129
  C     -1.119510    0.428462    1.748070
  H     -0.903319   -0.482885    5.100620
  H     -0.753900    1.418931    3.624832
  H     -1.849547   -3.026818    1.888584
  H     -1.226108   -2.749190    4.259159
  H     -0.818499    1.480549    1.089896
  C     -2.289020   -1.122496    0.085602
  H     -3.164465   -0.475974    0.135662
  H     -2.650060   -2.149113   -0.065053
  O      1.783443    0.047826   -1.480826
  C      2.188960   -0.778398   -2.395220
  O      1.632989   -1.752075   -2.866452
  C      3.546951   -0.398554   -2.975062
  H      4.008435   -1.293270   -3.426506
  H      4.205741    0.039387   -2.218006
  H      3.390601    0.347814   -3.769330

----------------------------
CARTESIAN COORDINATES (A.U.)
----------------------------
  NO LB      ZA    FRAG     MASS         X           Y           Z
   0 Pd   18.0000*   0   106.400    0.544744    0.422036   -0.232144
   1 O     8.0000    0    15.999    3.073998    2.682158    1.345661
   2 C     6.0000    0    12.011    2.582993    5.051144    0.958779
   3 O     8.0000    0    15.999    0.517063    5.868768    0.413111
   4 C     6.0000    0    12.011    4.878632    6.779541    1.254638
   5 H     1.0000    0     1.008    4.276355    8.596675    2.021594
   6 H     1.0000    0     1.008    5.681388    7.159566   -0.619597
   7 H     1.0000    0     1.008    6.374768    5.974309    2.432198
   8 N     7.0000    0    14.007   -2.666807   -1.378846   -1.948179
   9 C     6.0000    0    12.011   -2.241124   -3.576379   -3.572009
  10 H     1.0000    0     1.008   -1.042811   -3.089957   -5.154695
  11 H     1.0000    0     1.008   -4.066976   -4.301081   -4.211450
  12 H     1.0000    0     1.008   -1.289958   -5.020512   -2.483085
  13 C     6.0000    0    12.011   -3.833672    0.615868   -3.453131
  14 H     1.0000    0     1.008   -4.102890    2.306557   -2.326770
  15 H     1.0000    0     1.008   -5.668564   -0.029692   -4.140549
  16 H     1.0000    0     1.008   -2.622329    1.100591   -5.038976
  17 C     6.0000    0    12.011   -2.955706   -1.741216    2.598915
  18 C     6.0000    0    12.011   -2.894193   -3.848533    4.234361
  19 C     6.0000    0    12.011   -2.249747   -3.596023    6.757212
  20 C     6.0000    0    12.011   -1.843155   -1.165882    7.613416
  21 C     6.0000    0    12.011   -1.713353    0.892569    5.943432
  22 C     6.0000    0    12.011   -2.115567    0.809677    3.303373
  23 H     1.0000    0     1.008   -1.707026   -0.912521    9.638774
  24 H     1.0000    0     1.008   -1.424664    2.681391    6.849940
  25 H     1.0000    0     1.008   -3.495138   -5.719857    3.568907
  26 H     1.0000    0     1.008   -2.317009   -5.195217    8.048644
  27 H     1.0000    0     1.008   -1.546739    2.797833    2.059605
  28 C     6.0000    0    12.011   -4.325621   -2.121211    0.161765
  29 H     1.0000    0     1.008   -5.979971   -0.899460    0.256364
  30 H     1.0000    0     1.008   -5.007888   -4.061235   -0.122932
  31 O     8.0000    0    15.999    3.370219    0.090378   -2.798356
  32 C     6.0000    0    12.011    4.136536   -1.470960   -4.526311
  33 O     8.0000    0    15.999    3.085902   -3.310943   -5.416808
  34 C     6.0000    0    12.011    6.702766   -0.753158   -5.622052
  35 H     1.0000    0     1.008    7.574844   -2.443926   -6.475158
  36 H     1.0000    0     1.008    7.947698    0.074430   -4.191424
  37 H     1.0000    0     1.008    6.407308    0.657274   -7.123001
* core charge reduced due to ECP

--------------------------------
INTERNAL COORDINATES (ANGSTROEM)
--------------------------------
 Pd     0   0   0     0.000000000000     0.00000000     0.00000000
 O      1   0   0     1.979628446818     0.00000000     0.00000000
 C      2   1   0     1.296523098424   112.46189153     0.00000000
 O      3   2   1     1.210686568068   124.34479712    21.33051587
 C      3   2   1     1.528657963896   113.77139786   201.30142073
 H      5   3   2     1.091303324424   109.46348324   213.74766646
 H      5   3   2     1.097528365098   108.94511959    97.39618586
 H      5   3   2     1.093934487024   113.60467607   337.19280330
 N      1   2   3     2.149659069340   168.67014367   340.47865941
 C      9   1   2     1.463361866774   118.59714639   153.50156545
 H     10   9   1     1.081575782771   110.84448915   300.15756984
 H     10   9   1     1.093210907803   108.93363101   177.46741561
 H     10   9   1     1.081386704411   108.68281083    58.61858663
 C      9   1   2     1.459353108564   104.14522604    32.66237410
 H     14   9   1     1.084438809637   110.63283442   309.74201283
 H     14   9   1     1.091711743949   109.37968743   189.74416305
 H     14   9   1     1.086710658156   110.03291311    68.86523089
 C      9   1   2     2.418683673462    70.41906968   270.10873406
 C     18   9   1     1.411946583968   132.13979859   244.76612838
 C     19  18   9     1.384367099386   121.36888011   157.97375247
 C     20  19  18     1.380329931628   116.41496873     4.24526884
 C     21  20  19     1.404356165085   121.58059021   350.68705031
 C     22  21  20     1.413860026040   126.18284209     4.05303767
 H     21  20  19     1.082526336998   116.79122211   168.21723903
 H     22  21  20     1.072153368049   114.21993327   178.91789442
 H     19  18   9     1.098067357092   120.59784148   333.40943470
 H     20  19  18     1.088324079984   121.49659578   176.03899417
 H     23  22  21     1.276983525706   116.63094769   190.12195798
 C      9   1   2     1.473607145660   105.60761689   275.93648333
 H     29   9   1     1.089449903316   110.81094335   106.59988790
 H     29   9   1     1.098630263489   109.93590398   224.99675957
 O      1   2   3     2.027429289543    80.57212333   101.92096115
 C     32   1   2     1.297385032815   139.26306548   157.50796451
 O     33  32   1     1.216227682202   129.79392805    10.34925788
 C     33  32   1     1.524675925857   112.81615957   187.63583624
 H     35  33  32     1.103306691542   109.03378621   158.20940151
 H     35  33  32     1.094956519443   111.87491029    35.26323297
 H     35  33  32     1.101078010770   108.46561876   275.94002633

---------------------------
INTERNAL COORDINATES (A.U.)
---------------------------
 Pd     0   0   0     0.000000000000     0.00000000     0.00000000
 O      1   0   0     3.740955611405     0.00000000     0.00000000
 C      2   1   0     2.450073582324   112.46189153     0.00000000
 O      3   2   1     2.287866047665   124.34479712    21.33051587
 C      3   2   1     2.888744904202   113.77139786   201.30142073
 H      5   3   2     2.062264412200   109.46348324   213.74766646
 H      5   3   2     2.074028034245   108.94511959    97.39618586
 H      5   3   2     2.067236588928   113.60467607   337.19280330
 N      1   2   3     4.062266922352   168.67014367   340.47865941
 C      9   1   2     2.765353163026   118.59714639   153.50156545
 H     10   9   1     2.043882022519   110.84448915   300.15756984
 H     10   9   1     2.065869222364   108.93363101   177.46741561
 H     10   9   1     2.043524716200   108.68281083    58.61858663
 C      9   1   2     2.757777707873   104.14522604    32.66237410
 H     14   9   1     2.049292359210   110.63283442   309.74201283
 H     14   9   1     2.063036213249   109.37968743   189.74416305
 H     14   9   1     2.053585530727   110.03291311    68.86523089
 C      9   1   2     4.570649747430    70.41906968   270.10873406
 C     18   9   1     2.668192359425   132.13979859   244.76612838
 C     19  18   9     2.616074686650   121.36888011   157.97375247
 C     20  19  18     2.608445545232   116.41496873     4.24526884
 C     21  20  19     2.653848546494   121.58059021   350.68705031
 C     22  21  20     2.671808240915   126.18284209     4.05303767
 H     21  20  19     2.045678309684   116.79122211   168.21723903
 H     22  21  20     2.026076239173   114.21993327   178.91789442
 H     19  18   9     2.075046581503   120.59784148   333.40943470
 H     20  19  18     2.056634456121   121.49659578   176.03899417
 H     23  22  21     2.413149141114   116.63094769   190.12195798
 C      9   1   2     2.784713934286   105.60761689   275.93648333
 H     29   9   1     2.058761953895   110.81094335   106.59988790
 H     29   9   1     2.076110320431   109.93590398   224.99675957
 O      1   2   3     3.831286113126    80.57212333   101.92096115
 C     32   1   2     2.451702402269   139.26306548   157.50796451
 O     33  32   1     2.298337235856   129.79392805    10.34925788
 C     33  32   1     2.881219942853   112.81615957   187.63583624
 H     35  33  32     2.084947488737   109.03378621   158.20940151
 H     35  33  32     2.069167950299   111.87491029    35.26323297
 H     35  33  32     2.080735892438   108.46561876   275.94002633

---------------------
BASIS SET INFORMATION
---------------------
There are 5 groups of distinct atoms

 Group   1 Type Pd  : 7s6p5d1f contracted to 5s3p2d1f pattern {31111/411/41/1}
 Group   2 Type O   : 8s4p1d contracted to 4s2p1d pattern {5111/31/1}
 Group   3 Type C   : 8s4p1d contracted to 4s2p1d pattern {5111/31/1}
 Group   4 Type H   : 4s contracted to 2s pattern {31}
 Group   5 Type N   : 8s4p1d contracted to 4s2p1d pattern {5111/31/1}

Atom   0Pd   basis set group =>   1
Atom   1O    basis set group =>   2
Atom   2C    basis set group =>   3
Atom   3O    basis set group =>   2
Atom   4C    basis set group =>   3
Atom   5H    basis set group =>   4
Atom   6H    basis set group =>   4
Atom   7H    basis set group =>   4
Atom   8N    basis set group =>   5
Atom   9C    basis set group =>   3
Atom  10H    basis set group =>   4
Atom  11H    basis set group =>   4
Atom  12H    basis set group =>   4
Atom  13C    basis set group =>   3
Atom  14H    basis set group =>   4
Atom  15H    basis set group =>   4
Atom  16H    basis set group =>   4
Atom  17C    basis set group =>   3
Atom  18C    basis set group =>   3
Atom  19C    basis set group =>   3
Atom  20C    basis set group =>   3
Atom  21C    basis set group =>   3
Atom  22C    basis set group =>   3
Atom  23H    basis set group =>   4
Atom  24H    basis set group =>   4
Atom  25H    basis set group =>   4
Atom  26H    basis set group =>   4
Atom  27H    basis set group =>   4
Atom  28C    basis set group =>   3
Atom  29H    basis set group =>   4
Atom  30H    basis set group =>   4
Atom  31O    basis set group =>   2
Atom  32C    basis set group =>   3
Atom  33O    basis set group =>   2
Atom  34C    basis set group =>   3
Atom  35H    basis set group =>   4
Atom  36H    basis set group =>   4
Atom  37H    basis set group =>   4
---------------------------------
AUXILIARY/J BASIS SET INFORMATION
---------------------------------
There are 5 groups of distinct atoms

 Group   1 Type Pd  : 11s5p5d3f3g contracted to 8s5p5d2f3g pattern {41111111/11111/11111/21/111}
 Group   2 Type O   : 12s5p4d2f1g contracted to 6s4p3d1f1g pattern {711111/2111/211/2/1}
 Group   3 Type C   : 12s5p4d2f1g contracted to 6s4p3d1f1g pattern {711111/2111/211/2/1}
 Group   4 Type H   : 5s2p1d contracted to 3s1p1d pattern {311/2/1}
 Group   5 Type N   : 12s5p4d2f1g contracted to 6s4p3d1f1g pattern {711111/2111/211/2/1}

Atom   0Pd   basis set group =>   1
Atom   1O    basis set group =>   2
Atom   2C    basis set group =>   3
Atom   3O    basis set group =>   2
Atom   4C    basis set group =>   3
Atom   5H    basis set group =>   4
Atom   6H    basis set group =>   4
Atom   7H    basis set group =>   4
Atom   8N    basis set group =>   5
Atom   9C    basis set group =>   3
Atom  10H    basis set group =>   4
Atom  11H    basis set group =>   4
Atom  12H    basis set group =>   4
Atom  13C    basis set group =>   3
Atom  14H    basis set group =>   4
Atom  15H    basis set group =>   4
Atom  16H    basis set group =>   4
Atom  17C    basis set group =>   3
Atom  18C    basis set group =>   3
Atom  19C    basis set group =>   3
Atom  20C    basis set group =>   3
Atom  21C    basis set group =>   3
Atom  22C    basis set group =>   3
Atom  23H    basis set group =>   4
Atom  24H    basis set group =>   4
Atom  25H    basis set group =>   4
Atom  26H    basis set group =>   4
Atom  27H    basis set group =>   4
Atom  28C    basis set group =>   3
Atom  29H    basis set group =>   4
Atom  30H    basis set group =>   4
Atom  31O    basis set group =>   2
Atom  32C    basis set group =>   3
Atom  33O    basis set group =>   2
Atom  34C    basis set group =>   3
Atom  35H    basis set group =>   4
Atom  36H    basis set group =>   4
Atom  37H    basis set group =>   4
-------------------------
ECP PARAMETER INFORMATION
-------------------------

 Group 1, Type Pd ECP Def2-ECP (replacing 28 core electrons, lmax=3)

Atom   0Pd   ECP group =>   1

------------------------------------------------------------------------------
                           ORCA GTO INTEGRAL CALCULATION
                           -- RI-GTO INTEGRALS CHOSEN --
------------------------------------------------------------------------------
------------------------------------------------------------------------------
                   ___                                                        
                  /   \      - P O W E R E D   B Y -                         
                 /     \                                                     
                 |  |  |   _    _      __       _____    __    __             
                 |  |  |  | |  | |    /  \     |  _  \  |  |  /  |          
                  \  \/   | |  | |   /    \    | | | |  |  | /  /          
                 / \  \   | |__| |  /  /\  \   | |_| |  |  |/  /          
                |  |  |   |  __  | /  /__\  \  |    /   |      \           
                |  |  |   | |  | | |   __   |  |    \   |  |\   \          
                \     /   | |  | | |  |  |  |  | |\  \  |  | \   \       
                 \___/    |_|  |_| |__|  |__|  |_| \__\ |__|  \__/        
                                                                              
                      - O R C A' S   B I G   F R I E N D -                    
                                      &                                       
                       - I N T E G R A L  F E E D E R -                       
                                                                              
 v1 FN, 2020, v2 2021                                                         
------------------------------------------------------------------------------


Reading SHARK input file 7_28_orca.SHARKINP.tmp ... ok
----------------------
SHARK INTEGRAL PACKAGE
----------------------

Number of atoms                             ...     38
Number of basis functions                   ...    339
Number of shells                            ...    175
Maximum angular momentum                    ...      3
Integral batch strategy                     ... SHARK/LIBINT Hybrid
RI-J (if used) integral strategy            ... SPLIT-RIJ (Revised 2003 algorithm where possible)
Printlevel                                  ...      1
Contraction scheme used                     ... SEGMENTED contraction
Coulomb Range Separation                    ... NOT USED
Exchange Range Separation                   ... NOT USED
Finite Nucleus Model                        ... NOT USED
Auxiliary Coulomb fitting basis             ... AVAILABLE
   # of basis functions in Aux-J            ...   1180
   # of shells in Aux-J                     ...    388
   Maximum angular momentum in Aux-J        ...      4
Auxiliary J/K fitting basis                 ... NOT available
Auxiliary Correlation fitting basis         ... NOT available
Auxiliary 'external' fitting basis          ... NOT available
Integral threshold                          ...     2.500000e-11
Primitive cut-off                           ...     2.500000e-12
Primitive pair pre-selection threshold      ...     2.500000e-12

Calculating pre-screening integrals         ... done (  0.1 sec) Dimension = 175
Organizing shell pair data                  ... done (  0.1 sec)
Shell pair information
Total number of shell pairs                 ...     15400
Shell pairs after pre-screening             ...     10952
Total number of primitive shell pairs       ...     54591
Primitive shell pairs kept                  ...     24508
          la=0 lb=0:   4204 shell pairs
          la=1 lb=0:   3611 shell pairs
          la=1 lb=1:    721 shell pairs
          la=2 lb=0:   1479 shell pairs
          la=2 lb=1:    647 shell pairs
          la=2 lb=2:    144 shell pairs
          la=3 lb=0:     87 shell pairs
          la=3 lb=1:     39 shell pairs
          la=3 lb=2:     19 shell pairs
          la=3 lb=3:      1 shell pairs

Calculating one electron integrals          ... done (  0.1 sec)
Calculating ECP integrals                   ... done (  0.4 sec)
Calculating RI/J V-Matrix + Cholesky decomp.... done (  0.1 sec)
Calculating Nuclear repulsion               ... done (  0.0 sec) ENN=   1740.643752847571 Eh

SHARK setup successfully completed in   0.9 seconds

Maximum memory used throughout the entire GTOINT-calculation: 76.2 MB
-------------------------------------------------------------------------------
                                 ORCA SCF
-------------------------------------------------------------------------------

------------
SCF SETTINGS
------------
Hamiltonian:
 Density Functional     Method          .... DFT(GTOs)
 Exchange Functional    Exchange        .... PBE
   PBE kappa parameter   XKappa         ....  1.024500
   PBE mue parameter    XMuePBE         ....  0.123457
 Correlation Functional Correlation     .... PBE
   PBE beta parameter  CBetaPBE         ....  0.030000
 LDA part of GGA corr.  LDAOpt          .... PW91-LDA
 Gradients option       PostSCFGGA      .... off
 Hybrid DFT is turned on
   Fraction HF Exchange ScalHFX         ....  0.420000
   Scaling of DF-GGA-X  ScalDFX         ....  0.580000
   Scaling of DF-GGA-C  ScalDFC         ....  1.000000
   Scaling of DF-LDA-C  ScalLDAC        ....  1.000000
   Perturbative correction              ....  0.000000
   Density functional embedding theory  .... OFF
 RI-approximation to the Coulomb term is turned on
   Number of AuxJ basis functions       .... 1180
   RIJ-ON(X) (HFX calculated with O(N)) .... on
   Number of AuxJ basis functions       .... 1180
   RIJ-COSX (HFX calculated with COS-X)).... on


General Settings:
 Integral files         IntName         .... 7_28_orca
 Hartree-Fock type      HFTyp           .... RHF
 Total Charge           Charge          ....    0
 Multiplicity           Mult            ....    1
 Number of Electrons    NEL             ....  154
 Basis Dimension        Dim             ....  339
 Nuclear Repulsion      ENuc            ....   1740.6437528476 Eh

Convergence Acceleration:
 DIIS                   CNVDIIS         .... on
   Start iteration      DIISMaxIt       ....    12
   Startup error        DIISStart       ....  0.200000
   # of expansion vecs  DIISMaxEq       ....     5
   Bias factor          DIISBfac        ....   1.050
   Max. coefficient     DIISMaxC        ....  10.000
 Trust-Rad. Augm. Hess. CNVTRAH         .... auto
   Auto Start mean grad. ratio tolernc. ....  1.125000
   Auto Start start iteration           ....    20
   Auto Start num. interpolation iter.  ....    10
   Max. Number of Micro iterations      ....    16
   Max. Number of Macro iterations      .... Maxiter - #DIIS iter
   Number of Davidson start vectors     ....     2
   Converg. threshold I  (grad. norm)   ....   1.000e-05
   Converg. threshold II (energy diff.) ....   1.000e-08
   Grad. Scal. Fac. for Micro threshold ....   0.100
   Minimum threshold for Micro iter.    ....   0.010
   NR start threshold (gradient norm)   ....   0.001
   Initial trust radius                 ....   0.400
   Minimum AH scaling param. (alpha)    ....   1.000
   Maximum AH scaling param. (alpha)    .... 1000.000
   Orbital update algorithm             .... Taylor
   White noise on init. David. guess    .... on
   Maximum white noise                  ....   0.010
   Quad. conv. algorithm                .... NR
   COSX micro iterations for RIJONX calc.... off
 SOSCF                  CNVSOSCF        .... off
 Level Shifting         CNVShift        .... on
   Level shift para.    LevelShift      ....    0.2500
   Turn off err/grad.   ShiftErr        ....    0.0010
 Zerner damping         CNVZerner       .... off
 Static damping         CNVDamp         .... on
   Fraction old density DampFac         ....    0.7000
   Max. Damping (<1)    DampMax         ....    0.9800
   Min. Damping (>=0)   DampMin         ....    0.0000
   Turn off err/grad.   DampErr         ....    0.1000
 Fernandez-Rico         CNVRico         .... off

SCF Procedure:
 Maximum # iterations   MaxIter         ....   250
 SCF integral mode      SCFMode         .... Direct
   Integral package                     .... SHARK and LIBINT hybrid scheme
 Reset frequency        DirectResetFreq ....    20
 Integral Threshold     Thresh          ....  2.500e-11 Eh
 Primitive CutOff       TCut            ....  2.500e-12 Eh

Convergence Tolerance:
 Convergence Check Mode ConvCheckMode   .... Total+1el-Energy
 Convergence forced     ConvForced      .... 0
 Energy Change          TolE            ....  1.000e-08 Eh
 1-El. energy change                    ....  1.000e-05 Eh
 DIIS Error             TolErr          ....  5.000e-07


Diagonalization of the overlap matrix:
Smallest eigenvalue                        ... 6.063e-04
Time for diagonalization                   ...    0.013 sec
Threshold for overlap eigenvalues          ... 1.000e-08
Number of eigenvalues below threshold      ... 0
Time for construction of square roots      ...    0.005 sec
Total time needed                          ...    0.018 sec

--------------------------------
INITIAL GUESS: MINIMAL BASIS EHT
--------------------------------
The minimal basis has 122 functions
EHT matrix was diagonalized
Basis set overlap was calculated now projecting the orbitals
Using GuessMode=FMatrix for the initial guess
C*T matrix was formed
Effective Fockian was calculated
Effective Fockian was diagonalized
Initial density was built
                      ------------------
                      INITIAL GUESS DONE
                      ------------------
-------------------
DFT GRID GENERATION
-------------------

General Integration Accuracy     IntAcc      ... 4.159
Radial Grid Type                 RadialGrid  ... OptM3 with GC (2021)
Angular Grid (max. ang.)         AngularGrid ... 3 (Lebedev-194)
Angular grid pruning method      GridPruning ... 4 (adaptive)
Weight generation scheme         WeightScheme... Becke
Basis function cutoff            BFCut       ... 1.0000e-11
Integration weight cutoff        WCut        ... 1.0000e-14
Angular grids for H and He will be reduced by one unit
Partially contracted basis set               ... off
Rotationally invariant grid construction     ... off

Total number of grid points                  ...    89905
Total number of batches                      ...     1424
Average number of points per batch           ...       63
Average number of grid points per atom       ...     2366
Time for grid setup =    1.468 sec

--------------------
COSX GRID GENERATION
--------------------

GRIDX 1
-------
General Integration Accuracy     IntAcc      ... 3.816
Radial Grid Type                 RadialGrid  ... OptM3 with GC (2021)
Angular Grid (max. ang.)         AngularGrid ... 1 (Lebedev-50)
Angular grid pruning method      GridPruning ... 4 (adaptive)
Weight generation scheme         WeightScheme... Becke
Basis function cutoff            BFCut       ... 1.0000e-11
Integration weight cutoff        WCut        ... 1.0000e-14
Angular grids for H and He will be reduced by one unit
Partially contracted basis set               ... on
Rotationally invariant grid construction     ... off

Total number of grid points                  ...    22424
Total number of batches                      ...      368
Average number of points per batch           ...       60
Average number of grid points per atom       ...      590
UseSFitting                                  ... on

GRIDX 2
-------
General Integration Accuracy     IntAcc      ... 4.020
Radial Grid Type                 RadialGrid  ... OptM3 with GC (2021)
Angular Grid (max. ang.)         AngularGrid ... 2 (Lebedev-110)
Angular grid pruning method      GridPruning ... 4 (adaptive)
Weight generation scheme         WeightScheme... Becke
Basis function cutoff            BFCut       ... 1.0000e-11
Integration weight cutoff        WCut        ... 1.0000e-14
Angular grids for H and He will be reduced by one unit
Partially contracted basis set               ... on
Rotationally invariant grid construction     ... off

Total number of grid points                  ...    48200
Total number of batches                      ...      774
Average number of points per batch           ...       62
Average number of grid points per atom       ...     1268
UseSFitting                                  ... on

GRIDX 3
-------
General Integration Accuracy     IntAcc      ... 4.338
Radial Grid Type                 RadialGrid  ... OptM3 with GC (2021)
Angular Grid (max. ang.)         AngularGrid ... 3 (Lebedev-194)
Angular grid pruning method      GridPruning ... 4 (adaptive)
Weight generation scheme         WeightScheme... Becke
Basis function cutoff            BFCut       ... 1.0000e-11
Integration weight cutoff        WCut        ... 1.0000e-14
Angular grids for H and He will be reduced by one unit
Partially contracted basis set               ... on
Rotationally invariant grid construction     ... off

Total number of grid points                  ...   104339
Total number of batches                      ...     1653
Average number of points per batch           ...       63
Average number of grid points per atom       ...     2746
UseSFitting                                  ... on

Time for X-Grid setup             =    3.633 sec

--------------
SCF ITERATIONS
--------------
ITER       Energy         Delta-E        Max-DP      RMS-DP      [F,P]     Damp
               ***  Starting incremental Fock matrix formation  ***
  0   -976.6036338204   0.000000000000 2.87915887  0.02493370  5.2598381 0.7000
  1   -977.6670390304  -1.063405209913 4.60018091  0.03037376  3.8839467 0.7000
  2   -979.0414605232  -1.374421492875 1.47798527  0.01110230  2.7589805 0.7000
  3   -981.4540406061  -2.412580082922 0.97931847  0.00766691  1.9693004 0.7000
  4   -983.5225732293  -2.068532623113 0.67037934  0.00534956  1.3638579 0.7000
  5   -984.9738485677  -1.451275338415 0.47626726  0.00378305  0.9488635 0.7000
  6   -986.0115706984  -1.037722130733 0.34089483  0.00269152  0.6661399 0.7000
  7   -986.7518815309  -0.740310832522 0.24247697  0.00191105  0.4695910 0.7000
  8   -987.2767470146  -0.524865483673 0.17117351  0.00135189  0.3306715 0.7000
  9   -987.6476308546  -0.370883839964 0.12024561  0.00095429  0.2321047 0.7000
                               ***Turning on DIIS***
 10   -987.9091171784  -0.261486323875 0.08429176  0.00067349  0.1624779 0.7000
 11   -988.0931523276  -0.184035149123 0.05927902  0.00048057  0.1135897 0.7000
 12   -988.2225313690  -0.129379041427 0.13840306  0.00114342  0.0794927 0.0000
 13   -988.5264680320  -0.303936663051 0.00392923  0.00005484  0.0019813 0.0000
 14   -988.5265883772  -0.000120345187 0.00433651  0.00004677  0.0015842 0.0000
 15   -988.5266578516  -0.000069474321 0.00329278  0.00003257  0.0011656 0.0000
 16   -988.5266915716  -0.000033720038 0.00523178  0.00005067  0.0008499 0.0000
               *** Restarting incremental Fock matrix formation ***
                                   *** Resetting DIIS ***
 17   -988.5269743460  -0.000282774404 0.00162551  0.00003035  0.0004078 0.0000
 18   -988.5269792887  -0.000004942711 0.00086122  0.00000889  0.0004239 0.0000
 19   -988.5269814611  -0.000002172400 0.00087309  0.00000815  0.0002315 0.0000
 20   -988.5269828745  -0.000001413393 0.00056027  0.00000504  0.0001296 0.0000
 21   -988.5269833330  -0.000000458456 0.00048344  0.00000430  0.0000793 0.0000
 22   -988.5269835710  -0.000000238029 0.00024423  0.00000222  0.0000344 0.0000
 23   -988.5269836108  -0.000000039785 0.00008212  0.00000079  0.0000273 0.0000
 24   -988.5269836215  -0.000000010692 0.00002514  0.00000021  0.0000064 0.0000
                 **** Energy Check signals convergence ****

               *****************************************************
               *                     SUCCESS                       *
               *           SCF CONVERGED AFTER  25 CYCLES          *
               *****************************************************

Old exchange energy                            =    -52.668308021 Eh
New exchange energy                            =    -52.668246495 Eh
Exchange energy change after final integration =      0.000061526 Eh
Total energy after final integration           =   -988.526922102 Eh
Final COS-X integration done in                =    41.542 sec

----------------
TOTAL SCF ENERGY
----------------

Total Energy       :         -988.52692210 Eh          -26899.18508 eV

Components:
Nuclear Repulsion  :         1740.64375285 Eh           47365.32452 eV
Electronic Energy  :        -2729.17067495 Eh          -74264.50960 eV
One Electron Energy:        -4861.97959790 Eh         -132301.19092 eV
Two Electron Energy:         2132.80892295 Eh           58036.68132 eV
Max COSX asymmetry :            0.00005061 Eh               0.00138 eV

Virial components:
Potential Energy   :        -1890.35846475 Eh          -51439.26895 eV
Kinetic Energy     :          901.83154264 Eh           24540.08387 eV
Virial Ratio       :            2.09613257


DFT components:
N(Alpha)           :       76.999801756608 electrons
N(Beta)            :       76.999801756608 electrons
N(Total)           :      153.999603513217 electrons
E(X)               :      -70.238503147491 Eh       
E(C)               :       -6.921145682714 Eh       
E(XC)              :      -77.159648830205 Eh       
DFET-embed. en.    :        0.000000000000 Eh       

---------------
SCF CONVERGENCE
---------------

  Last Energy change         ...   -5.7329e-09  Tolerance :   1.0000e-08
  Last MAX-Density change    ...    0.0000e+00  Tolerance :   1.0000e-07
  Last RMS-Density change    ...    0.0000e+00  Tolerance :   5.0000e-09
  Last DIIS Error            ...    4.3004e-06  Tolerance :   5.0000e-07

             **** THE GBW FILE WAS UPDATED (7_28_orca.gbw) ****
             **** DENSITY 7_28_orca.scfp WAS UPDATED ****
             **** ENERGY FILE WAS UPDATED (7_28_orca.en.tmp) ****
             **** THE GBW FILE WAS UPDATED (7_28_orca.gbw) ****
             **** DENSITY 7_28_orca.scfp WAS UPDATED ****
----------------
ORBITAL ENERGIES
----------------

  NO   OCC          E(Eh)            E(eV) 
   0   2.0000     -19.484380      -530.1969 
   1   2.0000     -19.469775      -529.7995 
   2   2.0000     -19.453308      -529.3514 
   3   2.0000     -19.426062      -528.6100 
   4   2.0000     -14.725049      -400.6889 
   5   2.0000     -10.546283      -286.9789 
   6   2.0000     -10.528532      -286.4959 
   7   2.0000     -10.512367      -286.0561 
   8   2.0000     -10.511398      -286.0297 
   9   2.0000     -10.509949      -285.9903 
  10   2.0000     -10.488959      -285.4191 
  11   2.0000     -10.484516      -285.2982 
  12   2.0000     -10.482928      -285.2550 
  13   2.0000     -10.481912      -285.2273 
  14   2.0000     -10.475002      -285.0393 
  15   2.0000     -10.470046      -284.9044 
  16   2.0000     -10.423084      -283.6265 
  17   2.0000     -10.408284      -283.2238 
  18   2.0000      -3.678231      -100.0898 
  19   2.0000      -2.327654       -63.3387 
  20   2.0000      -2.319965       -63.1294 
  21   2.0000      -2.289158       -62.2912 
  22   2.0000      -1.169941       -31.8357 
  23   2.0000      -1.138072       -30.9685 
  24   2.0000      -1.092897       -29.7392 
  25   2.0000      -1.069704       -29.1081 
  26   2.0000      -1.050748       -28.5923 
  27   2.0000      -0.986863       -26.8539 
  28   2.0000      -0.899212       -24.4688 
  29   2.0000      -0.870479       -23.6870 
  30   2.0000      -0.828117       -22.5342 
  31   2.0000      -0.810116       -22.0444 
  32   2.0000      -0.801073       -21.7983 
  33   2.0000      -0.782275       -21.2868 
  34   2.0000      -0.728207       -19.8155 
  35   2.0000      -0.710074       -19.3221 
  36   2.0000      -0.688239       -18.7279 
  37   2.0000      -0.619723       -16.8635 
  38   2.0000      -0.599755       -16.3202 
  39   2.0000      -0.589014       -16.0279 
  40   2.0000      -0.585885       -15.9427 
  41   2.0000      -0.582085       -15.8393 
  42   2.0000      -0.570693       -15.5294 
  43   2.0000      -0.551505       -15.0072 
  44   2.0000      -0.537455       -14.6249 
  45   2.0000      -0.527398       -14.3512 
  46   2.0000      -0.513910       -13.9842 
  47   2.0000      -0.510903       -13.9024 
  48   2.0000      -0.510427       -13.8894 
  49   2.0000      -0.498670       -13.5695 
  50   2.0000      -0.494896       -13.4668 
  51   2.0000      -0.489800       -13.3281 
  52   2.0000      -0.483076       -13.1452 
  53   2.0000      -0.480746       -13.0818 
  54   2.0000      -0.469072       -12.7641 
  55   2.0000      -0.462683       -12.5903 
  56   2.0000      -0.445147       -12.1131 
  57   2.0000      -0.441750       -12.0206 
  58   2.0000      -0.439793       -11.9674 
  59   2.0000      -0.435009       -11.8372 
  60   2.0000      -0.427892       -11.6435 
  61   2.0000      -0.419699       -11.4206 
  62   2.0000      -0.417968       -11.3735 
  63   2.0000      -0.407845       -11.0980 
  64   2.0000      -0.400458       -10.8970 
  65   2.0000      -0.387861       -10.5542 
  66   2.0000      -0.368806       -10.0357 
  67   2.0000      -0.365015        -9.9326 
  68   2.0000      -0.351603        -9.5676 
  69   2.0000      -0.331161        -9.0113 
  70   2.0000      -0.326679        -8.8894 
  71   2.0000      -0.314830        -8.5670 
  72   2.0000      -0.313470        -8.5300 
  73   2.0000      -0.306129        -8.3302 
  74   2.0000      -0.294291        -8.0081 
  75   2.0000      -0.290924        -7.9165 
  76   2.0000      -0.276811        -7.5324 
  77   0.0000      -0.086290        -2.3481 
  78   0.0000      -0.027200        -0.7402 
  79   0.0000      -0.006699        -0.1823 
  80   0.0000       0.055931         1.5220 
  81   0.0000       0.062860         1.7105 
  82   0.0000       0.076636         2.0854 
  83   0.0000       0.092750         2.5239 
  84   0.0000       0.099704         2.7131 
  85   0.0000       0.107772         2.9326 
  86   0.0000       0.117861         3.2072 
  87   0.0000       0.125895         3.4258 
  88   0.0000       0.134456         3.6587 
  89   0.0000       0.143590         3.9073 
  90   0.0000       0.152520         4.1503 
  91   0.0000       0.160411         4.3650 
  92   0.0000       0.166956         4.5431 
  93   0.0000       0.181962         4.9514 
  94   0.0000       0.185673         5.0524 
  95   0.0000       0.199978         5.4417 
  96   0.0000       0.205856         5.6016 
  97   0.0000       0.207935         5.6582 
  98   0.0000       0.213965         5.8223 
  99   0.0000       0.222752         6.0614 
 100   0.0000       0.227660         6.1949 
 101   0.0000       0.232759         6.3337 
 102   0.0000       0.238707         6.4955 
 103   0.0000       0.242652         6.6029 
 104   0.0000       0.246433         6.7058 
 105   0.0000       0.250539         6.8175 
 106   0.0000       0.255294         6.9469 
 107   0.0000       0.258242         7.0271 
 108   0.0000       0.264068         7.1857 
 109   0.0000       0.267096         7.2681 
 110   0.0000       0.274673         7.4742 
 111   0.0000       0.282408         7.6847 
 112   0.0000       0.287712         7.8290 
 113   0.0000       0.291501         7.9322 
 114   0.0000       0.309643         8.4258 
 115   0.0000       0.324508         8.8303 
 116   0.0000       0.347226         9.4485 
 117   0.0000       0.374004        10.1772 
 118   0.0000       0.393199        10.6995 
 119   0.0000       0.413179        11.2432 
 120   0.0000       0.421463        11.4686 
 121   0.0000       0.440729        11.9928 
 122   0.0000       0.457802        12.4574 
 123   0.0000       0.461832        12.5671 
 124   0.0000       0.469264        12.7693 
 125   0.0000       0.496756        13.5174 
 126   0.0000       0.501346        13.6423 
 127   0.0000       0.509244        13.8572 
 128   0.0000       0.525341        14.2953 
 129   0.0000       0.534363        14.5408 
 130   0.0000       0.545629        14.8473 
 131   0.0000       0.549678        14.9575 
 132   0.0000       0.557219        15.1627 
 133   0.0000       0.563268        15.3273 
 134   0.0000       0.566822        15.4240 
 135   0.0000       0.574836        15.6421 
 136   0.0000       0.577386        15.7115 
 137   0.0000       0.587466        15.9858 
 138   0.0000       0.598974        16.2989 
 139   0.0000       0.601403        16.3650 
 140   0.0000       0.606117        16.4933 
 141   0.0000       0.611114        16.6293 
 142   0.0000       0.612386        16.6639 
 143   0.0000       0.620458        16.8835 
 144   0.0000       0.626853        17.0575 
 145   0.0000       0.628740        17.1089 
 146   0.0000       0.635130        17.2828 
 147   0.0000       0.645848        17.5744 
 148   0.0000       0.655239        17.8300 
 149   0.0000       0.666252        18.1296 
 150   0.0000       0.667221        18.1560 
 151   0.0000       0.674725        18.3602 
 152   0.0000       0.694094        18.8873 
 153   0.0000       0.708162        19.2701 
 154   0.0000       0.716250        19.4901 
 155   0.0000       0.725513        19.7422 
 156   0.0000       0.743591        20.2341 
 157   0.0000       0.762563        20.7504 
 158   0.0000       0.770753        20.9733 
 159   0.0000       0.786368        21.3982 
 160   0.0000       0.805362        21.9150 
 161   0.0000       0.820295        22.3214 
 162   0.0000       0.837927        22.8011 
 163   0.0000       0.864109        23.5136 
 164   0.0000       0.879645        23.9364 
 165   0.0000       0.879867        23.9424 
 166   0.0000       0.886188        24.1144 
 167   0.0000       0.902550        24.5596 
 168   0.0000       0.915570        24.9139 
 169   0.0000       0.938524        25.5385 
 170   0.0000       0.952874        25.9290 
 171   0.0000       0.954821        25.9820 
 172   0.0000       0.958759        26.0892 
 173   0.0000       0.966051        26.2876 
 174   0.0000       0.977127        26.5890 
 175   0.0000       0.994587        27.0641 
 176   0.0000       0.998417        27.1683 
 177   0.0000       1.001372        27.2487 
 178   0.0000       1.012596        27.5541 
 179   0.0000       1.014931        27.6177 
 180   0.0000       1.022896        27.8344 
 181   0.0000       1.028718        27.9928 
 182   0.0000       1.031577        28.0706 
 183   0.0000       1.031971        28.0814 
 184   0.0000       1.051329        28.6081 
 185   0.0000       1.061136        28.8750 
 186   0.0000       1.068356        29.0714 
 187   0.0000       1.070745        29.1365 
 188   0.0000       1.074828        29.2476 
 189   0.0000       1.076855        29.3027 
 190   0.0000       1.087915        29.6037 
 191   0.0000       1.096386        29.8342 
 192   0.0000       1.105162        30.0730 
 193   0.0000       1.118152        30.4265 
 194   0.0000       1.135415        30.8962 
 195   0.0000       1.137140        30.9431 
 196   0.0000       1.139433        31.0056 
 197   0.0000       1.170923        31.8624 
 198   0.0000       1.182541        32.1786 
 199   0.0000       1.196295        32.5529 
 200   0.0000       1.201864        32.7044 
 201   0.0000       1.224023        33.3073 
 202   0.0000       1.236771        33.6542 
 203   0.0000       1.242380        33.8069 
 204   0.0000       1.252453        34.0810 
 205   0.0000       1.279821        34.8257 
 206   0.0000       1.292860        35.1805 
 207   0.0000       1.316487        35.8234 
 208   0.0000       1.327047        36.1108 
 209   0.0000       1.342846        36.5407 
 210   0.0000       1.384277        37.6681 
 211   0.0000       1.408019        38.3141 
 212   0.0000       1.433664        39.0120 
 213   0.0000       1.435539        39.0630 
 214   0.0000       1.460293        39.7366 
 215   0.0000       1.464166        39.8420 
 216   0.0000       1.481649        40.3177 
 217   0.0000       1.499825        40.8123 
 218   0.0000       1.506596        40.9966 
 219   0.0000       1.513779        41.1920 
 220   0.0000       1.529360        41.6160 
 221   0.0000       1.553567        42.2747 
 222   0.0000       1.563331        42.5404 
 223   0.0000       1.576676        42.9035 
 224   0.0000       1.585286        43.1378 
 225   0.0000       1.620470        44.0952 
 226   0.0000       1.631569        44.3973 
 227   0.0000       1.664603        45.2962 
 228   0.0000       1.723770        46.9062 
 229   0.0000       1.749869        47.6164 
 230   0.0000       1.762393        47.9572 
 231   0.0000       1.784890        48.5693 
 232   0.0000       1.829139        49.7734 
 233   0.0000       1.829958        49.7957 
 234   0.0000       1.847466        50.2721 
 235   0.0000       1.849697        50.3328 
 236   0.0000       1.855710        50.4964 
 237   0.0000       1.891387        51.4673 
 238   0.0000       1.900426        51.7132 
 239   0.0000       1.921456        52.2855 
 240   0.0000       1.922711        52.3196 
 241   0.0000       1.928545        52.4784 
 242   0.0000       1.941332        52.8263 
 243   0.0000       1.945730        52.9460 
 244   0.0000       1.954959        53.1971 
 245   0.0000       1.963821        53.4383 
 246   0.0000       1.970748        53.6268 
 247   0.0000       1.992100        54.2078 
 248   0.0000       2.000894        54.4471 
 249   0.0000       2.010732        54.7148 
 250   0.0000       2.015818        54.8532 
 251   0.0000       2.026345        55.1397 
 252   0.0000       2.041714        55.5579 
 253   0.0000       2.052707        55.8570 
 254   0.0000       2.068320        56.2818 
 255   0.0000       2.073663        56.4272 
 256   0.0000       2.081631        56.6440 
 257   0.0000       2.100489        57.1572 
 258   0.0000       2.120113        57.6912 
 259   0.0000       2.126215        57.8572 
 260   0.0000       2.140936        58.2578 
 261   0.0000       2.149600        58.4936 
 262   0.0000       2.153212        58.5919 
 263   0.0000       2.163379        58.8685 
 264   0.0000       2.169533        59.0360 
 265   0.0000       2.191025        59.6208 
 266   0.0000       2.198543        59.8254 
 267   0.0000       2.202919        59.9445 
 268   0.0000       2.214661        60.2640 
 269   0.0000       2.224535        60.5327 
 270   0.0000       2.244706        61.0815 
 271   0.0000       2.274696        61.8976 
 272   0.0000       2.284181        62.1557 
 273   0.0000       2.291402        62.3522 
 274   0.0000       2.304031        62.6959 
 275   0.0000       2.317307        63.0571 
 276   0.0000       2.325721        63.2861 
 277   0.0000       2.332781        63.4782 
 278   0.0000       2.337191        63.5982 
 279   0.0000       2.342027        63.7298 
 280   0.0000       2.375951        64.6529 
 281   0.0000       2.400781        65.3286 
 282   0.0000       2.431893        66.1752 
 283   0.0000       2.452495        66.7358 
 284   0.0000       2.460674        66.9584 
 285   0.0000       2.466629        67.1204 
 286   0.0000       2.475081        67.3504 
 287   0.0000       2.485796        67.6419 
 288   0.0000       2.503713        68.1295 
 289   0.0000       2.514776        68.4305 
 290   0.0000       2.520230        68.5789 
 291   0.0000       2.555328        69.5340 
 292   0.0000       2.562302        69.7238 
 293   0.0000       2.577168        70.1283 
 294   0.0000       2.584717        70.3337 
 295   0.0000       2.626223        71.4631 
 296   0.0000       2.630849        71.5890 
 297   0.0000       2.651248        72.1441 
 298   0.0000       2.668770        72.6209 
 299   0.0000       2.701755        73.5185 
 300   0.0000       2.718061        73.9622 
 301   0.0000       2.766101        75.2694 
 302   0.0000       2.776545        75.5536 
 303   0.0000       2.788870        75.8890 
 304   0.0000       2.800237        76.1983 
 305   0.0000       2.818456        76.6941 
 306   0.0000       2.831410        77.0466 
 307   0.0000       2.850671        77.5707 
 308   0.0000       2.862076        77.8810 
 309   0.0000       2.879242        78.3482 
 310   0.0000       2.917790        79.3971 
 311   0.0000       2.957927        80.4893 
 312   0.0000       3.019437        82.1630 
 313   0.0000       3.057246        83.1919 
 314   0.0000       3.064746        83.3960 
 315   0.0000       3.074970        83.6742 
 316   0.0000       3.082899        83.8899 
 317   0.0000       3.234430        88.0133 
 318   0.0000       3.258505        88.6684 
 319   0.0000       3.347959        91.1026 
 320   0.0000      13.293761       361.7416 
 321   0.0000      13.618037       370.5656 
 322   0.0000      13.653462       371.5296 
 323   0.0000      13.697681       372.7328 
 324   0.0000      13.715196       373.2095 
 325   0.0000      13.728123       373.5612 
 326   0.0000      13.887617       377.9013 
 327   0.0000      13.970212       380.1488 
 328   0.0000      14.072908       382.9433 
 329   0.0000      14.099786       383.6747 
 330   0.0000      14.144882       384.9018 
 331   0.0000      14.153726       385.1425 
 332   0.0000      14.444392       393.0519 
 333   0.0000      19.383448       527.4504 
 334   0.0000      25.720617       699.8936 
 335   0.0000      25.759995       700.9651 
 336   0.0000      25.786786       701.6941 
 337   0.0000      25.808182       702.2763 
 338   0.0000      51.607915      1404.3228 

                    ********************************
                    * MULLIKEN POPULATION ANALYSIS *
                    ********************************

-----------------------
MULLIKEN ATOMIC CHARGES
-----------------------
   0 Pd:    0.502670
   1 O :   -0.510038
   2 C :    0.574068
   3 O :   -0.457956
   4 C :   -0.742820
   5 H :    0.235327
   6 H :    0.249531
   7 H :    0.244318
   8 N :   -0.476937
   9 C :   -0.533487
  10 H :    0.312527
  11 H :    0.207737
  12 H :    0.266091
  13 C :   -0.546634
  14 H :    0.281634
  15 H :    0.236048
  16 H :    0.285870
  17 C :    0.025425
  18 C :   -0.250275
  19 C :   -0.203337
  20 C :   -0.218393
  21 C :   -0.181964
  22 C :   -0.322435
  23 H :    0.238847
  24 H :    0.246001
  25 H :    0.230956
  26 H :    0.241617
  27 H :    0.342707
  28 C :   -0.323844
  29 H :    0.269292
  30 H :    0.258135
  31 O :   -0.520454
  32 C :    0.547441
  33 O :   -0.470785
  34 C :   -0.733141
  35 H :    0.231660
  36 H :    0.235310
  37 H :    0.229286
Sum of atomic charges:   -0.0000000

--------------------------------
MULLIKEN REDUCED ORBITAL CHARGES
--------------------------------
  0 Pds       :     2.454826  s :     2.454826
      pz      :     2.106351  p :     6.342830
      px      :     2.134293
      py      :     2.102187
      dz2     :     1.881849  d :     8.695147
      dxz     :     1.325775
      dyz     :     1.910886
      dx2y2   :     1.968726
      dxy     :     1.607911
      f0      :     0.000585  f :     0.004526
      f+1     :     0.000753
      f-1     :     0.000206
      f+2     :     0.000646
      f-2     :     0.001210
      f+3     :     0.000438
      f-3     :     0.000689
  1 O s       :     3.819427  s :     3.819427
      pz      :     1.662015  p :     4.663768
      px      :     1.698411
      py      :     1.303341
      dz2     :     0.003286  d :     0.026844
      dxz     :     0.002735
      dyz     :     0.006841
      dx2y2   :     0.007056
      dxy     :     0.006926
  2 C s       :     2.957481  s :     2.957481
      pz      :     0.722473  p :     2.323419
      px      :     0.840207
      py      :     0.760739
      dz2     :     0.010087  d :     0.145031
      dxz     :     0.018849
      dyz     :     0.021209
      dx2y2   :     0.046914
      dxy     :     0.047972
  3 O s       :     3.775078  s :     3.775078
      pz      :     1.493064  p :     4.654648
      px      :     1.409251
      py      :     1.752333
      dz2     :     0.003573  d :     0.028230
      dxz     :     0.008447
      dyz     :     0.002115
      dx2y2   :     0.006852
      dxy     :     0.007243
  4 C s       :     3.415399  s :     3.415399
      pz      :     1.159673  p :     3.294060
      px      :     1.046050
      py      :     1.088337
      dz2     :     0.006507  d :     0.033360
      dxz     :     0.007615
      dyz     :     0.004674
      dx2y2   :     0.005820
      dxy     :     0.008744
  5 H s       :     0.764673  s :     0.764673
  6 H s       :     0.750469  s :     0.750469
  7 H s       :     0.755682  s :     0.755682
  8 N s       :     3.587128  s :     3.587128
      pz      :     1.205144  p :     3.840890
      px      :     1.427057
      py      :     1.208689
      dz2     :     0.007747  d :     0.048919
      dxz     :     0.011002
      dyz     :     0.013009
      dx2y2   :     0.008183
      dxy     :     0.008978
  9 C s       :     3.367007  s :     3.367007
      pz      :     1.081147  p :     3.116865
      px      :     1.127140
      py      :     0.908577
      dz2     :     0.005203  d :     0.049616
      dxz     :     0.010792
      dyz     :     0.014919
      dx2y2   :     0.008849
      dxy     :     0.009854
 10 H s       :     0.687473  s :     0.687473
 11 H s       :     0.792263  s :     0.792263
 12 H s       :     0.733909  s :     0.733909
 13 C s       :     3.365937  s :     3.365937
      pz      :     1.072848  p :     3.130402
      px      :     1.093893
      py      :     0.963661
      dz2     :     0.004748  d :     0.050295
      dxz     :     0.012077
      dyz     :     0.013894
      dx2y2   :     0.011783
      dxy     :     0.007793
 14 H s       :     0.718366  s :     0.718366
 15 H s       :     0.763952  s :     0.763952
 16 H s       :     0.714130  s :     0.714130
 17 C s       :     3.216552  s :     3.216552
      pz      :     0.937138  p :     2.712116
      px      :     0.936429
      py      :     0.838549
      dz2     :     0.009205  d :     0.045907
      dxz     :     0.007601
      dyz     :     0.012415
      dx2y2   :     0.008257
      dxy     :     0.008429
 18 C s       :     3.259884  s :     3.259884
      pz      :     0.943534  p :     2.951433
      px      :     1.007247
      py      :     1.000651
      dz2     :     0.010477  d :     0.038959
      dxz     :     0.006190
      dyz     :     0.012170
      dx2y2   :     0.005715
      dxy     :     0.004408
 19 C s       :     3.261589  s :     3.261589
      pz      :     0.970019  p :     2.900714
      px      :     0.932571
      py      :     0.998124
      dz2     :     0.009435  d :     0.041034
      dxz     :     0.005542
      dyz     :     0.014907
      dx2y2   :     0.006492
      dxy     :     0.004658
 20 C s       :     3.242740  s :     3.242740
      pz      :     1.045317  p :     2.936233
      px      :     0.995772
      py      :     0.895144
      dz2     :     0.013074  d :     0.039420
      dxz     :     0.002454
      dyz     :     0.011302
      dx2y2   :     0.006416
      dxy     :     0.006174
 21 C s       :     3.267007  s :     3.267007
      pz      :     0.896543  p :     2.875258
      px      :     0.936846
      py      :     1.041868
      dz2     :     0.009592  d :     0.039699
      dxz     :     0.006617
      dyz     :     0.014536
      dx2y2   :     0.005880
      dxy     :     0.003074
 22 C s       :     3.334887  s :     3.334887
      pz      :     0.957013  p :     2.951147
      px      :     1.011282
      py      :     0.982852
      dz2     :     0.010066  d :     0.036401
      dxz     :     0.006101
      dyz     :     0.010442
      dx2y2   :     0.005004
      dxy     :     0.004788
 23 H s       :     0.761153  s :     0.761153
 24 H s       :     0.753999  s :     0.753999
 25 H s       :     0.769044  s :     0.769044
 26 H s       :     0.758383  s :     0.758383
 27 H s       :     0.657293  s :     0.657293
 28 C s       :     3.318761  s :     3.318761
      pz      :     0.821845  p :     2.949238
      px      :     0.966970
      py      :     1.160423
      dz2     :     0.015853  d :     0.055844
      dxz     :     0.014260
      dyz     :     0.006521
      dx2y2   :     0.007329
      dxy     :     0.011881
 29 H s       :     0.730708  s :     0.730708
 30 H s       :     0.741865  s :     0.741865
 31 O s       :     3.803282  s :     3.803282
      pz      :     1.486375  p :     4.694130
      px      :     1.606956
      py      :     1.600799
      dz2     :     0.005601  d :     0.023042
      dxz     :     0.003344
      dyz     :     0.006795
      dx2y2   :     0.004043
      dxy     :     0.003260
 32 C s       :     2.949827  s :     2.949827
      pz      :     0.745944  p :     2.356690
      px      :     0.826582
      py      :     0.784164
      dz2     :     0.027931  d :     0.146041
      dxz     :     0.020774
      dyz     :     0.032823
      dx2y2   :     0.033762
      dxy     :     0.030750
 33 O s       :     3.762674  s :     3.762674
      pz      :     1.592790  p :     4.679875
      px      :     1.655254
      py      :     1.431831
      dz2     :     0.004241  d :     0.028236
      dxz     :     0.003503
      dyz     :     0.006393
      dx2y2   :     0.007857
      dxy     :     0.006243
 34 C s       :     3.410876  s :     3.410876
      pz      :     1.130376  p :     3.288399
      px      :     1.011947
      py      :     1.146077
      dz2     :     0.002455  d :     0.033865
      dxz     :     0.008348
      dyz     :     0.010222
      dx2y2   :     0.006262
      dxy     :     0.006577
 35 H s       :     0.768340  s :     0.768340
 36 H s       :     0.764690  s :     0.764690
 37 H s       :     0.770714  s :     0.770714


                     *******************************
                     * LOEWDIN POPULATION ANALYSIS *
                     *******************************

----------------------
LOEWDIN ATOMIC CHARGES
----------------------
   0 Pd:   -0.330401
   1 O :   -0.162002
   2 C :    0.137113
   3 O :   -0.258561
   4 C :   -0.380628
   5 H :    0.142395
   6 H :    0.156393
   7 H :    0.145240
   8 N :   -0.055890
   9 C :   -0.241228
  10 H :    0.170711
  11 H :    0.112978
  12 H :    0.150262
  13 C :   -0.232712
  14 H :    0.155594
  15 H :    0.126860
  16 H :    0.160098
  17 C :   -0.003721
  18 C :   -0.130260
  19 C :   -0.100018
  20 C :   -0.132689
  21 C :   -0.079982
  22 C :   -0.107194
  23 H :    0.145634
  24 H :    0.150947
  25 H :    0.146869
  26 H :    0.146891
  27 H :    0.277483
  28 C :   -0.105587
  29 H :    0.154644
  30 H :    0.145920
  31 O :   -0.178447
  32 C :    0.120027
  33 O :   -0.288085
  34 C :   -0.384352
  35 H :    0.140263
  36 H :    0.140063
  37 H :    0.145369

-------------------------------
LOEWDIN REDUCED ORBITAL CHARGES
-------------------------------
  0 Pds       :     2.469608  s :     2.469608
      pz      :     2.238897  p :     6.730513
      px      :     2.289489
      py      :     2.202127
      dz2     :     1.937304  d :     9.124086
      dxz     :     1.476976
      dyz     :     1.966279
      dx2y2   :     2.031157
      dxy     :     1.712369
      f0      :     0.000820  f :     0.006194
      f+1     :     0.001001
      f-1     :     0.000247
      f+2     :     0.000882
      f-2     :     0.001695
      f+3     :     0.000574
      f-3     :     0.000975
  1 O s       :     3.456355  s :     3.456355
      pz      :     1.625100  p :     4.648732
      px      :     1.661684
      py      :     1.361948
      dz2     :     0.007236  d :     0.056916
      dxz     :     0.003866
      dyz     :     0.011818
      dx2y2   :     0.018655
      dxy     :     0.015342
  2 C s       :     2.808036  s :     2.808036
      pz      :     0.748343  p :     2.726385
      px      :     1.026074
      py      :     0.951968
      dz2     :     0.023529  d :     0.328466
      dxz     :     0.039125
      dyz     :     0.045334
      dx2y2   :     0.105530
      dxy     :     0.114949
  3 O s       :     3.497962  s :     3.497962
      pz      :     1.482957  p :     4.705672
      px      :     1.495392
      py      :     1.727323
      dz2     :     0.006835  d :     0.054926
      dxz     :     0.012770
      dyz     :     0.003255
      dx2y2   :     0.016019
      dxy     :     0.016048
  4 C s       :     2.967232  s :     2.967232
      pz      :     1.144020  p :     3.351922
      px      :     1.096785
      py      :     1.111117
      dz2     :     0.011227  d :     0.061474
      dxz     :     0.013625
      dyz     :     0.008017
      dx2y2   :     0.011105
      dxy     :     0.017501
  5 H s       :     0.857605  s :     0.857605
  6 H s       :     0.843607  s :     0.843607
  7 H s       :     0.854760  s :     0.854760
  8 N s       :     3.091216  s :     3.091216
      pz      :     1.225317  p :     3.854461
      px      :     1.391356
      py      :     1.237788
      dz2     :     0.017263  d :     0.110213
      dxz     :     0.024444
      dyz     :     0.031225
      dx2y2   :     0.018044
      dxy     :     0.019237
  9 C s       :     2.944306  s :     2.944306
      pz      :     1.086614  p :     3.200325
      px      :     1.133010
      py      :     0.980702
      dz2     :     0.010044  d :     0.096596
      dxz     :     0.019134
      dyz     :     0.030479
      dx2y2   :     0.017300
      dxy     :     0.019640
 10 H s       :     0.829289  s :     0.829289
 11 H s       :     0.887022  s :     0.887022
 12 H s       :     0.849738  s :     0.849738
 13 C s       :     2.937788  s :     2.937788
      pz      :     1.082393  p :     3.197098
      px      :     1.097296
      py      :     1.017408
      dz2     :     0.009397  d :     0.097826
      dxz     :     0.022691
      dyz     :     0.027036
      dx2y2   :     0.023079
      dxy     :     0.015623
 14 H s       :     0.844406  s :     0.844406
 15 H s       :     0.873140  s :     0.873140
 16 H s       :     0.839902  s :     0.839902
 17 C s       :     2.850320  s :     2.850320
      pz      :     1.031851  p :     3.047512
      px      :     0.951790
      py      :     1.063871
      dz2     :     0.022343  d :     0.105888
      dxz     :     0.016516
      dyz     :     0.030170
      dx2y2   :     0.019438
      dxy     :     0.017421
 18 C s       :     2.888525  s :     2.888525
      pz      :     1.076045  p :     3.152885
      px      :     1.012194
      py      :     1.064645
      dz2     :     0.026655  d :     0.088850
      dxz     :     0.012836
      dyz     :     0.030922
      dx2y2   :     0.010346
      dxy     :     0.008092
 19 C s       :     2.894586  s :     2.894586
      pz      :     1.085941  p :     3.112480
      px      :     0.935778
      py      :     1.090762
      dz2     :     0.023854  d :     0.092952
      dxz     :     0.012008
      dyz     :     0.034892
      dx2y2   :     0.013389
      dxy     :     0.008808
 20 C s       :     2.891603  s :     2.891603
      pz      :     1.079900  p :     3.151675
      px      :     0.987739
      py      :     1.084037
      dz2     :     0.027103  d :     0.089411
      dxz     :     0.003848
      dyz     :     0.029268
      dx2y2   :     0.016262
      dxy     :     0.012930
 21 C s       :     2.893821  s :     2.893821
      pz      :     1.077464  p :     3.097293
      px      :     0.933559
      py      :     1.086269
      dz2     :     0.025595  d :     0.088868
      dxz     :     0.013662
      dyz     :     0.034099
      dx2y2   :     0.010158
      dxy     :     0.005354
 22 C s       :     2.900325  s :     2.900325
      pz      :     1.061323  p :     3.128490
      px      :     1.007473
      py      :     1.059693
      dz2     :     0.024728  d :     0.078379
      dxz     :     0.011588
      dyz     :     0.023823
      dx2y2   :     0.009751
      dxy     :     0.008488
 23 H s       :     0.854366  s :     0.854366
 24 H s       :     0.849053  s :     0.849053
 25 H s       :     0.853131  s :     0.853131
 26 H s       :     0.853109  s :     0.853109
 27 H s       :     0.722517  s :     0.722517
 28 C s       :     2.888713  s :     2.888713
      pz      :     0.957630  p :     3.100420
      px      :     1.036052
      py      :     1.106738
      dz2     :     0.034341  d :     0.116454
      dxz     :     0.032559
      dyz     :     0.013517
      dx2y2   :     0.014036
      dxy     :     0.022001
 29 H s       :     0.845356  s :     0.845356
 30 H s       :     0.854080  s :     0.854080
 31 O s       :     3.452290  s :     3.452290
      pz      :     1.493272  p :     4.673580
      px      :     1.580324
      py      :     1.599984
      dz2     :     0.010479  d :     0.052577
      dxz     :     0.010788
      dyz     :     0.015676
      dx2y2   :     0.008198
      dxy     :     0.007436
 32 C s       :     2.813156  s :     2.813156
      pz      :     0.853345  p :     2.735722
      px      :     0.955530
      py      :     0.926848
      dz2     :     0.059884  d :     0.331095
      dxz     :     0.043811
      dyz     :     0.081919
      dx2y2   :     0.078280
      dxy     :     0.067202
 33 O s       :     3.513033  s :     3.513033
      pz      :     1.581018  p :     4.721038
      px      :     1.657032
      py      :     1.482988
      dz2     :     0.007586  d :     0.054014
      dxz     :     0.005689
      dyz     :     0.012735
      dx2y2   :     0.012849
      dxy     :     0.015155
 34 C s       :     2.975036  s :     2.975036
      pz      :     1.128132  p :     3.347115
      px      :     1.084637
      py      :     1.134347
      dz2     :     0.004371  d :     0.062200
      dxz     :     0.015917
      dyz     :     0.017067
      dx2y2   :     0.012301
      dxy     :     0.012544
 35 H s       :     0.859737  s :     0.859737
 36 H s       :     0.859937  s :     0.859937
 37 H s       :     0.854631  s :     0.854631


                      *****************************
                      * MAYER POPULATION ANALYSIS *
                      *****************************

  NA   - Mulliken gross atomic population
  ZA   - Total nuclear charge
  QA   - Mulliken gross atomic charge
  VA   - Mayer's total valence
  BVA  - Mayer's bonded valence
  FA   - Mayer's free valence

  ATOM       NA         ZA         QA         VA         BVA        FA
  0 Pd    17.4973    18.0000     0.5027     2.4733     2.4733    -0.0000
  1 O      8.5100     8.0000    -0.5100     2.1187     2.1187     0.0000
  2 C      5.4259     6.0000     0.5741     4.0162     4.0162    -0.0000
  3 O      8.4580     8.0000    -0.4580     2.1372     2.1372     0.0000
  4 C      6.7428     6.0000    -0.7428     3.6937     3.6937     0.0000
  5 H      0.7647     1.0000     0.2353     0.9062     0.9062    -0.0000
  6 H      0.7505     1.0000     0.2495     0.9014     0.9014    -0.0000
  7 H      0.7557     1.0000     0.2443     0.9041     0.9041    -0.0000
  8 N      7.4769     7.0000    -0.4769     3.1529     3.1529     0.0000
  9 C      6.5335     6.0000    -0.5335     3.5859     3.5859     0.0000
 10 H      0.6875     1.0000     0.3125     0.8994     0.8994    -0.0000
 11 H      0.7923     1.0000     0.2077     0.9082     0.9082    -0.0000
 12 H      0.7339     1.0000     0.2661     0.8968     0.8968     0.0000
 13 C      6.5466     6.0000    -0.5466     3.6070     3.6070    -0.0000
 14 H      0.7184     1.0000     0.2816     0.8826     0.8826     0.0000
 15 H      0.7640     1.0000     0.2360     0.9032     0.9032     0.0000
 16 H      0.7141     1.0000     0.2859     0.8878     0.8878     0.0000
 17 C      5.9746     6.0000     0.0254     3.6952     3.6952    -0.0000
 18 C      6.2503     6.0000    -0.2503     3.8457     3.8457     0.0000
 19 C      6.2033     6.0000    -0.2033     3.8267     3.8267    -0.0000
 20 C      6.2184     6.0000    -0.2184     3.8008     3.8008    -0.0000
 21 C      6.1820     6.0000    -0.1820     3.7957     3.7957    -0.0000
 22 C      6.3224     6.0000    -0.3224     3.6176     3.6176    -0.0000
 23 H      0.7612     1.0000     0.2388     0.9044     0.9044    -0.0000
 24 H      0.7540     1.0000     0.2460     0.9042     0.9042    -0.0000
 25 H      0.7690     1.0000     0.2310     0.9118     0.9118     0.0000
 26 H      0.7584     1.0000     0.2416     0.9034     0.9034     0.0000
 27 H      0.6573     1.0000     0.3427     0.8902     0.8902     0.0000
 28 C      6.3238     6.0000    -0.3238     3.5977     3.5977    -0.0000
 29 H      0.7307     1.0000     0.2693     0.8849     0.8849     0.0000
 30 H      0.7419     1.0000     0.2581     0.9015     0.9015    -0.0000
 31 O      8.5205     8.0000    -0.5205     2.1026     2.1026     0.0000
 32 C      5.4526     6.0000     0.5474     4.1126     4.1126     0.0000
 33 O      8.4708     8.0000    -0.4708     2.1231     2.1231    -0.0000
 34 C      6.7331     6.0000    -0.7331     3.7013     3.7013    -0.0000
 35 H      0.7683     1.0000     0.2317     0.9124     0.9124    -0.0000
 36 H      0.7647     1.0000     0.2353     0.9073     0.9073    -0.0000
 37 H      0.7707     1.0000     0.2293     0.9100     0.9100     0.0000

  Mayer bond orders larger than 0.100000
B(  0-Pd,  1-O ) :   0.6527 B(  0-Pd,  8-N ) :   0.4275 B(  0-Pd, 22-C ) :   0.2503 
B(  0-Pd, 31-O ) :   0.6323 B(  1-O ,  2-C ) :   1.2739 B(  2-C ,  3-O ) :   1.8194 
B(  2-C ,  4-C ) :   0.9283 B(  4-C ,  5-H ) :   0.9166 B(  4-C ,  6-H ) :   0.9101 
B(  4-C ,  7-H ) :   0.9139 B(  8-N ,  9-C ) :   0.9111 B(  8-N , 13-C ) :   0.9171 
B(  8-N , 28-C ) :   0.8761 B(  9-C , 10-H ) :   0.8635 B(  9-C , 11-H ) :   0.9023 
B(  9-C , 12-H ) :   0.9068 B( 13-C , 14-H ) :   0.8905 B( 13-C , 15-H ) :   0.9007 
B( 13-C , 16-H ) :   0.8949 B( 17-C , 18-C ) :   1.4314 B( 17-C , 22-C ) :   1.2324 
B( 17-C , 28-C ) :   0.9364 B( 18-C , 19-C ) :   1.4196 B( 18-C , 25-H ) :   0.9140 
B( 19-C , 20-C ) :   1.4237 B( 19-C , 26-H ) :   0.9087 B( 20-C , 21-C ) :   1.4284 
B( 20-C , 23-H ) :   0.9114 B( 21-C , 22-C ) :   1.3700 B( 21-C , 24-H ) :   0.9114 
B( 22-C , 27-H ) :   0.6979 B( 28-C , 29-H ) :   0.8965 B( 28-C , 30-H ) :   0.9102 
B( 31-O , 32-C ) :   1.2930 B( 31-O , 33-O ) :   0.1053 B( 32-C , 33-O ) :   1.8975 
B( 32-C , 34-C ) :   0.9170 B( 34-C , 35-H ) :   0.9218 B( 34-C , 36-H ) :   0.9149 
B( 34-C , 37-H ) :   0.9176 


------------------
HIRSHFELD ANALYSIS
------------------

Total integrated alpha density =     76.999801759
Total integrated beta density  =     76.999801759

  ATOM     CHARGE      SPIN    
   0 Pd   0.623361    0.000000
   1 O   -0.321395    0.000000
   2 C    0.202799    0.000000
   3 O   -0.357725    0.000000
   4 C   -0.077183    0.000000
   5 H    0.037182    0.000000
   6 H    0.047931    0.000000
   7 H    0.039218    0.000000
   8 N   -0.079231    0.000000
   9 C   -0.026410    0.000000
  10 H    0.043291    0.000000
  11 H    0.028254    0.000000
  12 H    0.042900    0.000000
  13 C   -0.025603    0.000000
  14 H    0.040194    0.000000
  15 H    0.036786    0.000000
  16 H    0.051914    0.000000
  17 C   -0.010297    0.000000
  18 C   -0.046149    0.000000
  19 C   -0.020202    0.000000
  20 C   -0.036028    0.000000
  21 C   -0.021044    0.000000
  22 C   -0.067516    0.000000
  23 H    0.051534    0.000000
  24 H    0.050359    0.000000
  25 H    0.049342    0.000000
  26 H    0.058961    0.000000
  27 H    0.063904    0.000000
  28 C    0.002561    0.000000
  29 H    0.043857    0.000000
  30 H    0.047481    0.000000
  31 O   -0.341261    0.000000
  32 C    0.197990    0.000000
  33 O   -0.352612    0.000000
  34 C   -0.084301    0.000000
  35 H    0.035809    0.000000
  36 H    0.033066    0.000000
  37 H    0.038658    0.000000

  TOTAL   0.000396    0.000000

-------
TIMINGS
-------

Total SCF time: 0 days 0 hours 6 min 42 sec 

Total time                  ....     402.243 sec
Sum of individual times     ....     401.815 sec  ( 99.9%)

Fock matrix formation       ....     395.186 sec  ( 98.2%)
  Split-RI-J                ....      40.395 sec  ( 10.2% of F)
  Chain of spheres X        ....     327.792 sec  ( 82.9% of F)
  XC integration            ....      26.903 sec  (  6.8% of F)
    Basis function eval.    ....      11.116 sec  ( 41.3% of XC)
    Density eval.           ....       6.615 sec  ( 24.6% of XC)
    XC-Functional eval.     ....       2.016 sec  (  7.5% of XC)
    XC-Potential eval.      ....       6.226 sec  ( 23.1% of XC)
Diagonalization             ....       0.389 sec  (  0.1%)
Density matrix formation    ....       0.055 sec  (  0.0%)
Population analysis         ....       0.881 sec  (  0.2%)
Initial guess               ....       0.047 sec  (  0.0%)
Orbital Transformation      ....       0.000 sec  (  0.0%)
Orbital Orthonormalization  ....       0.000 sec  (  0.0%)
DIIS solution               ....       0.156 sec  (  0.0%)
Grid generation             ....       5.101 sec  (  1.3%)

Maximum memory used throughout the entire SCF-calculation: 155.4 MB


-------------------------------------------------------------------------------
                          DFT DISPERSION CORRECTION                            
                                                                               
                              DFTD3 V3.1  Rev 1                                
                          USING Becke-Johnson damping                          
-------------------------------------------------------------------------------
The PBEh-3c composite method is recognized
Using three-body term ABC
Active option DFTDOPT                   ...         4   

molecular C6(AA) [au] = 16229.901349 


            DFT-D V3
 parameters
 s6 scaling factor         :     1.0000 
 a1 scaling factor         :     0.4860 
 s8 scaling factor         :     0.0000 
 a2 scaling factor         :     4.5000 
 Damping factor alpha9(ATM):    16.0000 
 ad hoc parameters k1-k3   :    16.0000     1.3333    -4.0000 

 Edisp/kcal,au: -16.574128082184  -0.026412551522 
 E6   /kcal   : -16.747522765 
 E8   /kcal   :  -0.000000000 
 E6(ABC)      :   0.173394683 
 % E8         :   0.000000000 
 % E6(ABC)    :  -1.046176801 

-------------------------   ----------------
Dispersion correction           -0.026412552
-------------------------   ----------------

 ** NOTE ** -> element pd will be treated as ni
------------------   -----------------
gCP correction             0.087295130
------------------   -----------------

-------------------------   --------------------
FINAL SINGLE POINT ENERGY      -988.466039522878
-------------------------   --------------------

------------------------------------------------------------------------------
                         ORCA SCF GRADIENT CALCULATION
------------------------------------------------------------------------------

 ... reading COSX grid (gridx3)
Gradient of the Kohn-Sham DFT energy:
Kohn-Sham wavefunction type      ... RKS
Hartree-Fock exchange scaling    ...    0.420
Number of operators              ...    1
Number of atoms                  ...   38
Basis set dimensions             ...  339
Integral neglect threshold       ... 2.5e-11
Integral primitive cutoff        ... 2.5e-12
SHARK Integral package           ... ON

Nuc. rep. gradient       (SHARK) ... done (  0.0 sec)
HCore & Overlap gradient (SHARK) ... done (  1.2 sec)
ECP gradient             (SHARK) ... done (  2.0 sec)
RI-J gradient            (SHARK) ... done (  5.7 sec)
COSX-gradient                    ... done ( 52.6 sec)
Exchange-correlation gradient    ... done
Dispersion correction            ... done
gCP correction                   ... done

------------------
CARTESIAN GRADIENT
------------------

   1   Pd  :   -0.014283921    0.003704450    0.013650133
   2   O   :   -0.003529849    0.003068656    0.000954907
   3   C   :   -0.025946830    0.009476434   -0.009814548
   4   O   :    0.019642607   -0.006549524    0.005162500
   5   C   :    0.003849020   -0.000231911    0.001540484
   6   H   :   -0.001100414    0.001692612   -0.000194403
   7   H   :    0.001936689    0.002618785   -0.003207196
   8   H   :    0.004802986   -0.000313317    0.002518237
   9   N   :   -0.009644884   -0.002391403    0.005390680
  10   C   :   -0.001650645    0.002183517   -0.001084695
  11   H   :   -0.000248014    0.001454564    0.000362127
  12   H   :    0.000503940    0.000676214    0.002519068
  13   H   :   -0.002492021    0.004403627    0.000141491
  14   C   :    0.000741782   -0.003919948    0.002272091
  15   H   :    0.002559494   -0.003382452   -0.001041668
  16   H   :    0.001847504   -0.001632526    0.003610041
  17   H   :    0.000574781    0.000414263    0.001694649
  18   C   :    0.002372095   -0.009345958   -0.000887656
  19   C   :    0.000645347   -0.007910186    0.005980429
  20   C   :    0.006570092   -0.005670630    0.005339583
  21   C   :    0.001719106   -0.004853977    0.004520495
  22   C   :   -0.004932711   -0.005232162   -0.002364140
  23   C   :   -0.007690937    0.021856150   -0.011905540
  24   H   :   -0.004796330   -0.007983043    0.001876828
  25   H   :   -0.007682488   -0.009502510    0.001472559
  26   H   :   -0.002561665   -0.012035514    0.002690063
  27   H   :   -0.002469881   -0.003528199    0.003883721
  28   H   :    0.035905355    0.048962491   -0.029694672
  29   C   :   -0.005141832   -0.005669023   -0.001167540
  30   H   :    0.003457588   -0.000018048    0.005882790
  31   H   :   -0.002957910   -0.004980983   -0.004284009
  32   O   :    0.004823406    0.002894481    0.004122520
  33   C   :   -0.001339645    0.000302619    0.003302434
  34   O   :    0.008175702   -0.002147181   -0.008263127
  35   C   :   -0.003484658   -0.001001185   -0.000143393
  36   H   :    0.002895467   -0.009803980   -0.004495521
  37   H   :    0.001301050    0.001592879    0.004694121
  38   H   :   -0.002473176    0.003723193   -0.004644253

Difference to translation invariance:
           :   -0.0001038004    0.0009212733    0.0003895882

Difference to rotation invariance:
           :    0.0008668550    0.0028289910    0.0030809436

Norm of the cartesian gradient     ...    0.0932428940
RMS gradient                       ...    0.0087329972
MAX gradient                       ...    0.0489624909

-------
TIMINGS
-------

Total SCF gradient time            ...       70.247 sec

One electron gradient       ....       3.160 sec  (  4.5%)
RI-J Coulomb gradient       ....       5.719 sec  (  8.1%)
COSX gradient               ....      52.639 sec  ( 74.9%)
XC gradient                 ....       7.442 sec  ( 10.6%)

Maximum memory used throughout the entire SCFGRAD-calculation: 123.2 MB

                            ***************************************
                            *     ORCA property calculations      *
                            ***************************************

                                    ---------------------
                                    Active property flags
                                    ---------------------
   (+) Dipole Moment


------------------------------------------------------------------------------
                       ORCA ELECTRIC PROPERTIES CALCULATION
------------------------------------------------------------------------------

Dipole Moment Calculation                       ... on
Quadrupole Moment Calculation                   ... off
Polarizability Calculation                      ... off
GBWName                                         ... 7_28_orca.gbw
Electron density                                ... 7_28_orca.scfp
The origin for moment calculation is the CENTER OF MASS  = ( 0.302495,  0.169598  0.071307)

-------------
DIPOLE MOMENT
-------------
                                X             Y             Z
Electronic contribution:      9.99787       9.84946      -5.12626
Nuclear contribution   :    -12.30590     -10.60267       6.45442
                        -----------------------------------------
Total Dipole Moment    :     -2.30803      -0.75321       1.32816
                        -----------------------------------------
Magnitude (a.u.)       :      2.76737
Magnitude (Debye)      :      7.03409



--------------------
Rotational spectrum 
--------------------
 
Rotational constants in cm-1:     0.013149     0.009365     0.006914 
Rotational constants in MHz :   394.201412   280.741287   207.285634 

 Dipole components along the rotational axes: 
x,y,z [a.u.] :     2.552818     0.858501    -0.635947 
x,y,z [Debye]:     6.488749     2.182137    -1.616449 

 

Timings for individual modules:

Sum of individual times         ...      473.497 sec (=   7.892 min)
GTO integral calculation        ...        0.946 sec (=   0.016 min)   0.2 %
SCF iterations                  ...      402.266 sec (=   6.704 min)  85.0 %
SCF Gradient evaluation         ...       70.286 sec (=   1.171 min)  14.8 %
                             ****ORCA TERMINATED NORMALLY****
TOTAL RUN TIME: 0 days 0 hours 7 minutes 53 seconds 984 msec
