
                                 *****************
                                 * O   R   C   A *
                                 *****************

                                            #,                                       
                                            ###                                      
                                            ####                                     
                                            #####                                    
                                            ######                                   
                                           ########,                                 
                                     ,,################,,,,,                         
                               ,,#################################,,                 
                          ,,##########################################,,             
                       ,#########################################, ''#####,          
                    ,#############################################,,   '####,        
                  ,##################################################,,,,####,       
                ,###########''''           ''''###############################       
              ,#####''   ,,,,##########,,,,          '''####'''          '####       
            ,##' ,,,,###########################,,,                        '##       
           ' ,,###''''                  '''############,,,                           
         ,,##''                                '''############,,,,        ,,,,,,###''
      ,#''                                            '''#######################'''  
     '                                                          ''''####''''         
             ,#######,   #######,   ,#######,      ##                                
            ,#'     '#,  ##    ##  ,#'     '#,    #''#        ######   ,####,        
            ##       ##  ##   ,#'  ##            #'  '#       #        #'  '#        
            ##       ##  #######   ##           ,######,      #####,   #    #        
            '#,     ,#'  ##    ##  '#,     ,#' ,#      #,         ##   #,  ,#        
             '#######'   ##     ##  '#######'  #'      '#     #####' # '####'        



                  #######################################################
                  #                        -***-                        #
                  #          Department of theory and spectroscopy      #
                  #    Directorship and core code : Frank Neese         #
                  #        Max Planck Institute fuer Kohlenforschung    #
                  #                Kaiser Wilhelm Platz 1               #
                  #                 D-45470 Muelheim/Ruhr               #
                  #                      Germany                        #
                  #                                                     #
                  #                  All rights reserved                #
                  #                        -***-                        #
                  #######################################################


                         Program Version 5.0.3 -  RELEASE  -


 With contributions from (in alphabetic order):
   Daniel Aravena         : Magnetic Suceptibility
   Michael Atanasov       : Ab Initio Ligand Field Theory (pilot matlab implementation)
   Alexander A. Auer      : GIAO ZORA, VPT2 properties, NMR spectrum
   Ute Becker             : Parallelization
   Giovanni Bistoni       : ED, misc. LED, open-shell LED, HFLD
   Martin Brehm           : Molecular dynamics
   Dmytro Bykov           : SCF Hessian
   Vijay G. Chilkuri      : MRCI spin determinant printing, contributions to CSF-ICE
   Dipayan Datta          : RHF DLPNO-CCSD density
   Achintya Kumar Dutta   : EOM-CC, STEOM-CC
   Dmitry Ganyushin       : Spin-Orbit,Spin-Spin,Magnetic field MRCI
   Miquel Garcia          : C-PCM and meta-GGA Hessian, CC/C-PCM, Gaussian charge scheme
   Yang Guo               : DLPNO-NEVPT2, F12-NEVPT2, CIM, IAO-localization
   Andreas Hansen         : Spin unrestricted coupled pair/coupled cluster methods
   Benjamin Helmich-Paris : MC-RPA, TRAH-SCF, COSX integrals
   Lee Huntington         : MR-EOM, pCC
   Robert Izsak           : Overlap fitted RIJCOSX, COSX-SCS-MP3, EOM
   Marcus Kettner         : VPT2
   Christian Kollmar      : KDIIS, OOCD, Brueckner-CCSD(T), CCSD density, CASPT2, CASPT2-K
   Simone Kossmann        : Meta GGA functionals, TD-DFT gradient, OOMP2, MP2 Hessian
   Martin Krupicka        : Initial AUTO-CI
   Lucas Lang             : DCDCAS
   Marvin Lechner         : AUTO-CI (C++ implementation), FIC-MRCC
   Dagmar Lenk            : GEPOL surface, SMD
   Dimitrios Liakos       : Extrapolation schemes; Compound Job, initial MDCI parallelization
   Dimitrios Manganas     : Further ROCIS development; embedding schemes
   Dimitrios Pantazis     : SARC Basis sets
   Anastasios Papadopoulos: AUTO-CI, single reference methods and gradients
   Taras Petrenko         : DFT Hessian,TD-DFT gradient, ASA, ECA, R-Raman, ABS, FL, XAS/XES, NRVS
   Peter Pinski           : DLPNO-MP2, DLPNO-MP2 Gradient
   Christoph Reimann      : Effective Core Potentials
   Marius Retegan         : Local ZFS, SOC
   Christoph Riplinger    : Optimizer, TS searches, QM/MM, DLPNO-CCSD(T), (RO)-DLPNO pert. Triples
   Tobias Risthaus        : Range-separated hybrids, TD-DFT gradient, RPA, STAB
   Michael Roemelt        : Original ROCIS implementation
   Masaaki Saitow         : Open-shell DLPNO-CCSD energy and density
   Barbara Sandhoefer     : DKH picture change effects
   Avijit Sen             : IP-ROCIS
   Kantharuban Sivalingam : CASSCF convergence, NEVPT2, FIC-MRCI
   Bernardo de Souza      : ESD, SOC TD-DFT
   Georgi Stoychev        : AutoAux, RI-MP2 NMR, DLPNO-MP2 response
   Willem Van den Heuvel  : Paramagnetic NMR
   Boris Wezisla          : Elementary symmetry handling
   Frank Wennmohs         : Technical directorship


 We gratefully acknowledge several colleagues who have allowed us to
 interface, adapt or use parts of their codes:
   Stefan Grimme, W. Hujo, H. Kruse, P. Pracht,  : VdW corrections, initial TS optimization,
                  C. Bannwarth, S. Ehlert          DFT functionals, gCP, sTDA/sTD-DF
   Ed Valeev, F. Pavosevic, A. Kumar             : LibInt (2-el integral package), F12 methods
   Garnet Chan, S. Sharma, J. Yang, R. Olivares  : DMRG
   Ulf Ekstrom                                   : XCFun DFT Library
   Mihaly Kallay                                 : mrcc  (arbitrary order and MRCC methods)
   Jiri Pittner, Ondrej Demel                    : Mk-CCSD
   Frank Weinhold                                : gennbo (NPA and NBO analysis)
   Christopher J. Cramer and Donald G. Truhlar   : smd solvation model
   Lars Goerigk                                  : TD-DFT with DH, B97 family of functionals
   V. Asgeirsson, H. Jonsson                     : NEB implementation
   FAccTs GmbH                                   : IRC, NEB, NEB-TS, DLPNO-Multilevel, CI-OPT
                                                   MM, QMMM, 2- and 3-layer-ONIOM, Crystal-QMMM,
                                                   LR-CPCM, SF, NACMEs, symmetry and pop. for TD-DFT,
                                                   nearIR, NL-DFT gradient (VV10), updates on ESD,
                                                   ML-optimized integration grids
   S Lehtola, MJT Oliveira, MAL Marques          : LibXC Library
   Liviu Ungur et al                             : ANISO software


 Your calculation uses the libint2 library for the computation of 2-el integrals
 For citations please refer to: http://libint.valeyev.net

 Your ORCA version has been built with support for libXC version: 5.1.0
 For citations please refer to: https://tddft.org/programs/libxc/

 This ORCA versions uses:
   CBLAS   interface :  Fast vector & matrix operations
   LAPACKE interface :  Fast linear algebra routines
   SCALAPACK package :  Parallel linear algebra routines
   Shared memory     :  Shared parallel matrices
   BLAS/LAPACK       :  OpenBLAS 0.3.15  USE64BITINT DYNAMIC_ARCH NO_AFFINITY SkylakeX SINGLE_THREADED
        Core in use  :  SkylakeX
   Copyright (c) 2011-2014, The OpenBLAS Project


Your calculation utilizes the geometrical counterpoise correction gCP
Please cite in your paper:
H.Kruse, S. Grimme J.Chem.Phys., 136, (2012), 154101 
   

Your calculation utilizes the atom-pairwise dispersion correction
with the Becke-Johnson damping scheme (D3BJ)
Cite in your paper:
S.Grimme, S.Ehrlich, L.Goerigk, J Comput Chem, (2011), 32, 1456–1465 
S.Grimme, J.Antony, S.Ehrlich and H.Krieg, J.Chem.Phys., 132, (2010), 154104 
   

Your calculation employs the composite approach PBEh-3c.
Please cite in your paper:
S. Grimme, J. G. Brandenburg, C. Bannwarth, A. Hansen J.Chem.Phys., 143, (2015), 054107 
   

================================================================================

cite the ECPs for Ir [Def2-ECP] as follows:
Ce-Yb(ecp-28): M. Dolg, H. Stoll, H.Preuss, J. Chem. Phys., 1989, 90, 1730-1734.
Y-Cd(ecp-28), Hf-Hg(ecp-46): D. Andrae,U. Haeussermann, M. Dolg, H. Stoll, H. Preuss, Theor. Chim. Acta, 1990, 77, 123-141.
In-Sb(ecp-28), Tl-Bi(ecp-46): B. Metz, H. Stoll, M. Dolg, J. Chem. Phys., 2000, 113, 2563-2569.
Te-Xe(ecp-28), Po-Rn(ecp-46): K. A. Peterson, D. Figgen, E. Goll, H. Stoll, M. Dolg, J. Chem. Phys., 2003, 119, 11113-11123.
Rb(ecp-28), Cs(ecp-46): T. Leininger, A. Nicklass, W. Kuechle, H. Stoll, M. Dolg, A. Bergner, Chem. Phys. Lett., 1996, 255, 274-280.
Sr(ecp-28), Ba(ecp-46): M. Kaupp, P. V. Schleyer, H. Stoll and H. Preuss, J. Chem. Phys., 1991, 94, 1360-1366.
La(ecp-46): M. Dolg, H. Stoll, A. Savin, H. Preuss, Theor. Chim. Acta, 1989, 75, 173-194.
Lu(ecp-28): X. Cao, M. Dolg, J. Chem. Phys., 2001, 115, 7348-7355.

ECP parameters for Ir [Def2-ECP] have been obtained from:
TURBOMOLE (7.0.2)

----- Orbital basis set information -----
Your calculation utilizes the basis: def2-mSVP

----- AuxJ basis set information -----
Your calculation utilizes the auxiliary basis: def2/J
   F. Weigend, Phys. Chem. Chem. Phys. 8, 1057 (2006).

================================================================================
                                        WARNINGS
                       Please study these warnings very carefully!
================================================================================


WARNING: No Hueckel Guess possible with ECP basis!
  ===> : Switching to HCORE guess!

INFO   : the flag for use of the SHARK integral package has been found!

================================================================================
                                       INPUT FILE
================================================================================
NAME = 5_2_orca.inp
|  1> ! EnGrad PBEh-3c
|  2> %output 
|  3> xyzfile=True 
|  4> end 
|  5> %scf 
|  6> maxiter 250 
|  7> end
|  8> %output
|  9> Print[P_Hirshfeld] = 1
| 10> end
| 11> % maxcore
| 12> 4000
| 13> *xyz 1 1
| 14> Ir   0.48245694  -0.71542594   0.83613672 
| 15> C   -0.08229231  -2.77349565   1.51849187 
| 16> C    0.63210187  -2.09690261   2.54504991 
| 17> C    1.97766579  -2.26570159   0.70812703 
| 18> C    0.74533349  -2.86188627   0.36954093 
| 19> C    1.92630192  -1.80290325   2.05594612 
| 20> N   -1.01175427  -0.02383061  -0.44636311 
| 21> C   -2.44835077   0.02376496   0.02708823 
| 22> C   -2.88321969   1.41531251   0.44741986 
| 23> H   -3.92027701   1.38424025   0.78853019 
| 24> H   -2.81562079   2.11928460  -0.37888579 
| 25> H   -2.31529927   1.77488967   1.28554341 
| 26> C   -3.41799534  -0.55734718  -0.99918394 
| 27> H   -2.46895064  -0.61379310   0.89815939 
| 28> H   -4.39825331  -0.66778004  -0.51798552 
| 29> H   -3.57966760   0.09621807  -1.85277653 
| 30> H   -3.11645848  -1.53560924  -1.34476683 
| 31> C   -0.74959905   0.28228650  -1.66687246 
| 32> C    0.55274418   0.20078396  -2.27419623 
| 33> H   -1.55946063   0.55998820  -2.31449621 
| 34> C    1.82653957   0.13511021  -1.58271051 
| 35> C    2.83545480  -0.04749374  -2.58210353 
| 36> S    0.72160859   0.15884933  -3.99209676 
| 37> C    2.41509860  -0.01084230  -3.87787747 
| 38> H    2.17541668   0.99049337  -0.82621746 
| 39> H    3.88454217  -0.04409868  -2.31669228 
| 40> H    3.03032974  -0.10755655  -4.75513352 
| 41> H   -0.94831981  -3.39622682   1.68603567 
| 42> H    0.28052038  -1.97896835   3.56898403 
| 43> H    2.74496760  -1.42559317   2.61633241 
| 44> O    1.85898727   1.83572854   0.61095522 
| 45> O    0.09415787   1.04924356   1.83604198 
| 46> C    0.92560742   2.05178172   1.46715285 
| 47> C    0.79004646   3.40738373   2.09097013 
| 48> H    0.83924431   4.16638679   1.30875904 
| 49> H    1.66084909   3.57554593   2.73653654 
| 50> H   -0.10764507   3.51746406   2.67570843 
| 51> H    2.89228447  -2.35618000   0.13667766 
| 52> H    0.53051584  -3.46428842  -0.48667423 
| 53> *
| 54> 
| 55>                          ****END OF INPUT****
================================================================================

                     *******************************
                     * Energy+Gradient Calculation *
                     *******************************

---------------------------------
CARTESIAN COORDINATES (ANGSTROEM)
---------------------------------
  Ir     0.482457   -0.715426    0.836137
  C     -0.082292   -2.773496    1.518492
  C      0.632102   -2.096903    2.545050
  C      1.977666   -2.265702    0.708127
  C      0.745333   -2.861886    0.369541
  C      1.926302   -1.802903    2.055946
  N     -1.011754   -0.023831   -0.446363
  C     -2.448351    0.023765    0.027088
  C     -2.883220    1.415313    0.447420
  H     -3.920277    1.384240    0.788530
  H     -2.815621    2.119285   -0.378886
  H     -2.315299    1.774890    1.285543
  C     -3.417995   -0.557347   -0.999184
  H     -2.468951   -0.613793    0.898159
  H     -4.398253   -0.667780   -0.517986
  H     -3.579668    0.096218   -1.852777
  H     -3.116458   -1.535609   -1.344767
  C     -0.749599    0.282286   -1.666872
  C      0.552744    0.200784   -2.274196
  H     -1.559461    0.559988   -2.314496
  C      1.826540    0.135110   -1.582711
  C      2.835455   -0.047494   -2.582104
  S      0.721609    0.158849   -3.992097
  C      2.415099   -0.010842   -3.877877
  H      2.175417    0.990493   -0.826217
  H      3.884542   -0.044099   -2.316692
  H      3.030330   -0.107557   -4.755134
  H     -0.948320   -3.396227    1.686036
  H      0.280520   -1.978968    3.568984
  H      2.744968   -1.425593    2.616332
  O      1.858987    1.835729    0.610955
  O      0.094158    1.049244    1.836042
  C      0.925607    2.051782    1.467153
  C      0.790046    3.407384    2.090970
  H      0.839244    4.166387    1.308759
  H      1.660849    3.575546    2.736537
  H     -0.107645    3.517464    2.675708
  H      2.892284   -2.356180    0.136678
  H      0.530516   -3.464288   -0.486674

----------------------------
CARTESIAN COORDINATES (A.U.)
----------------------------
  NO LB      ZA    FRAG     MASS         X           Y           Z
   0 Ir   17.0000*   0   192.220    0.911711   -1.351959    1.580069
   1 C     6.0000    0    12.011   -0.155510   -5.241147    2.869534
   2 C     6.0000    0    12.011    1.194499   -3.962572    4.809447
   3 C     6.0000    0    12.011    3.737247   -4.281556    1.338166
   4 C     6.0000    0    12.011    1.408476   -5.408181    0.698331
   5 C     6.0000    0    12.011    3.640183   -3.406993    3.885175
   6 N     7.0000    0    14.007   -1.911938   -0.045033   -0.843504
   7 C     6.0000    0    12.011   -4.626712    0.044909    0.051189
   8 C     6.0000    0    12.011   -5.448496    2.674553    0.845501
   9 H     1.0000    0     1.008   -7.408250    2.615835    1.490106
  10 H     1.0000    0     1.008   -5.320752    4.004867   -0.715990
  11 H     1.0000    0     1.008   -4.375282    3.354055    2.429325
  12 C     6.0000    0    12.011   -6.459075   -1.053234   -1.888184
  13 H     1.0000    0     1.008   -4.665641   -1.159901    1.697275
  14 H     1.0000    0     1.008   -8.311494   -1.261921   -0.978851
  15 H     1.0000    0     1.008   -6.764591    0.181826   -3.501240
  16 H     1.0000    0     1.008   -5.889253   -2.901881   -2.541241
  17 C     6.0000    0    12.011   -1.416537    0.533444   -3.149932
  18 C     6.0000    0    12.011    1.044535    0.379427   -4.297608
  19 H     1.0000    0     1.008   -2.946954    1.058224   -4.373764
  20 C     6.0000    0    12.011    3.451660    0.255321   -2.990889
  21 C     6.0000    0    12.011    5.358233   -0.089750   -4.879469
  22 S    16.0000    0    32.060    1.363643    0.300182   -7.543970
  23 C     6.0000    0    12.011    4.563875   -0.020489   -7.328126
  24 H     1.0000    0     1.008    4.110942    1.871761   -1.561325
  25 H     1.0000    0     1.008    7.340721   -0.083334   -4.377914
  26 H     1.0000    0     1.008    5.726493   -0.203252   -8.985900
  27 H     1.0000    0     1.008   -1.792065   -6.417939    3.186146
  28 H     1.0000    0     1.008    0.530107   -3.739708    6.744402
  29 H     1.0000    0     1.008    5.187237   -2.693981    4.944152
  30 O     8.0000    0    15.999    3.512977    3.469024    1.154538
  31 O     8.0000    0    15.999    0.177933    1.982783    3.469617
  32 C     6.0000    0    12.011    1.749145    3.877306    2.772517
  33 C     6.0000    0    12.011    1.492971    6.439022    3.951361
  34 H     1.0000    0     1.008    1.585942    7.873330    2.473196
  35 H     1.0000    0     1.008    3.138550    6.756803    5.171305
  36 H     1.0000    0     1.008   -0.203420    6.647044    5.056356
  37 H     1.0000    0     1.008    5.465626   -4.452535    0.258283
  38 H     1.0000    0     1.008    1.002530   -6.546556   -0.919681
* core charge reduced due to ECP

--------------------------------
INTERNAL COORDINATES (ANGSTROEM)
--------------------------------
 Ir     0   0   0     0.000000000000     0.00000000     0.00000000
 C      1   0   0     2.240580549172     0.00000000     0.00000000
 C      2   1   0     1.421955904971    69.88946816     0.00000000
 C      1   2   3     2.157635413325    62.14464886    81.40337959
 C      4   1   2     1.410219705366    73.28745828    37.71842100
 C      3   2   1     1.414429888857   107.99643268   298.09853245
 N      1   2   3     2.087049844761   108.12360362   212.50897208
 C      7   1   2     1.513350922108   119.85504435    56.03429600
 C      8   7   1     1.517298336080   112.80417052   100.51705483
 H      9   8   7     1.092158242902   109.42532405   180.64963145
 H      9   8   7     1.087624632859   111.42809283    60.85476196
 H      9   8   7     1.074374433106   111.81149401   297.20142077
 C      8   7   1     1.526805972710   112.37160155   226.49311511
 H      8   7   1     1.079661799036   104.59277579   343.13805715
 H     13   8   7     1.097566865265   108.10764016   169.25373015
 H     13   8   7     1.087154894835   113.16598261   286.06686693
 H     13   8   7     1.080439109730   112.48029818    50.88985095
 C      7   1   2     1.285331131594   121.09177823   240.66523736
 C     18   7   1     1.439299383158   124.87186354   359.49156861
 H     18   7   1     1.073503858636   118.72435728   175.23913191
 C     19  18   7     1.450868787309   126.57465489   341.53768049
 C     21  19  18     1.431796267737   106.96308447   175.24635572
 S     19  18   7     1.726689298378   120.64226646   161.01938226
 C     22  21  19     1.362744571266   116.28960382     4.89378214
 H     21  19  18     1.194017304310   121.73960572   301.51274703
 H     22  21  19     1.082145539173   120.76577164   174.91170655
 H     24  22  21     1.075844402802   126.62135509   178.63668517
 H      2   1   3     1.079753983908   141.18501471   120.35530761
 H      3   2   1     1.089017500269   124.61922714   126.86244408
 H      6   3   2     1.061418478311   126.65922701   189.10991224
 O     25  21  19     1.697060805115   147.02083363    61.07153939
 O      1   2   3     2.065101726542   126.16137842   307.24125577
 C     31  25  21     1.284893498541   141.58272772   345.10012359
 C     33  31  25     1.498392999923   119.68727207   216.84670430
 H     34  33  31     1.091036325176   109.07566227    47.43402120
 H     34  33  31     1.096964783229   108.17246855   292.29881172
 H     34  33  31     1.076980334813   113.19873151   171.33254845
 H      4   1   2     1.082251382514   132.61292657   160.50505333
 H      5   4   1     1.068709208948   127.32285428   129.80607491

---------------------------
INTERNAL COORDINATES (A.U.)
---------------------------
 Ir     0   0   0     0.000000000000     0.00000000     0.00000000
 C      1   0   0     4.234083618925     0.00000000     0.00000000
 C      2   1   0     2.687107234908    69.88946816     0.00000000
 C      1   2   3     4.077340028035    62.14464886    81.40337959
 C      4   1   2     2.664929031801    73.28745828    37.71842100
 C      3   2   1     2.672885125573   107.99643268   298.09853245
 N      1   2   3     3.943952634441   108.12360362   212.50897208
 C      7   1   2     2.859818787300   119.85504435    56.03429600
 C      8   7   1     2.867278318646   112.80417052   100.51705483
 H      9   8   7     2.063879973990   109.42532405   180.64963145
 H      9   8   7     2.055312692611   111.42809283    60.85476196
 H      9   8   7     2.030273443857   111.81149401   297.20142077
 C      8   7   1     2.885245148057   112.37160155   226.49311511
 H      8   7   1     2.040265117436   104.59277579   343.13805715
 H     13   8   7     2.074100789017   108.10764016   169.25373015
 H     13   8   7     2.054425016390   113.16598261   286.06686693
 H     13   8   7     2.041734021768   112.48029818    50.88985095
 C      7   1   2     2.428923830116   121.09177823   240.66523736
 C     18   7   1     2.719881658891   124.87186354   359.49156861
 H     18   7   1     2.028628296530   118.72435728   175.23913191
 C     19  18   7     2.741744664269   126.57465489   341.53768049
 C     21  19  18     2.705702825594   106.96308447   175.24635572
 S     19  18   7     3.262969892307   120.64226646   161.01938226
 C     22  21  19     2.575214030181   116.28960382     4.89378214
 H     21  19  18     2.256365704309   121.73960572   301.51274703
 H     22  21  19     2.044958706082   120.76577164   174.91170655
 H     24  22  21     2.033051284008   126.62135509   178.63668517
 H      2   1   3     2.040439321596   141.18501471   120.35530761
 H      3   2   1     2.057944830556   124.61922714   126.86244408
 H      6   3   2     2.005790237491   126.65922701   189.10991224
 O     25  21  19     3.206980154279   147.02083363    61.07153939
 O      1   2   3     3.902476701853   126.16137842   307.24125577
 C     31  25  21     2.428096823498   141.58272772   345.10012359
 C     33  31  25     2.831552410839   119.68727207   216.84670430
 H     34  33  31     2.061759856742   109.07566227    47.43402120
 H     34  33  31     2.072963018859   108.17246855   292.29881172
 H     34  33  31     2.035197884415   113.19873151   171.33254845
 H      4   1   2     2.045158721010   132.61292657   160.50505333
 H      5   4   1     2.019567721711   127.32285428   129.80607491

---------------------
BASIS SET INFORMATION
---------------------
There are 6 groups of distinct atoms

 Group   1 Type Ir  : 7s6p5d1f contracted to 6s3p2d1f pattern {211111/411/41/1}
 Group   2 Type C   : 8s4p1d contracted to 4s2p1d pattern {5111/31/1}
 Group   3 Type N   : 8s4p1d contracted to 4s2p1d pattern {5111/31/1}
 Group   4 Type H   : 4s contracted to 2s pattern {31}
 Group   5 Type S   : 10s7p1d contracted to 4s3p1d pattern {5311/511/1}
 Group   6 Type O   : 8s4p1d contracted to 4s2p1d pattern {5111/31/1}

Atom   0Ir   basis set group =>   1
Atom   1C    basis set group =>   2
Atom   2C    basis set group =>   2
Atom   3C    basis set group =>   2
Atom   4C    basis set group =>   2
Atom   5C    basis set group =>   2
Atom   6N    basis set group =>   3
Atom   7C    basis set group =>   2
Atom   8C    basis set group =>   2
Atom   9H    basis set group =>   4
Atom  10H    basis set group =>   4
Atom  11H    basis set group =>   4
Atom  12C    basis set group =>   2
Atom  13H    basis set group =>   4
Atom  14H    basis set group =>   4
Atom  15H    basis set group =>   4
Atom  16H    basis set group =>   4
Atom  17C    basis set group =>   2
Atom  18C    basis set group =>   2
Atom  19H    basis set group =>   4
Atom  20C    basis set group =>   2
Atom  21C    basis set group =>   2
Atom  22S    basis set group =>   5
Atom  23C    basis set group =>   2
Atom  24H    basis set group =>   4
Atom  25H    basis set group =>   4
Atom  26H    basis set group =>   4
Atom  27H    basis set group =>   4
Atom  28H    basis set group =>   4
Atom  29H    basis set group =>   4
Atom  30O    basis set group =>   6
Atom  31O    basis set group =>   6
Atom  32C    basis set group =>   2
Atom  33C    basis set group =>   2
Atom  34H    basis set group =>   4
Atom  35H    basis set group =>   4
Atom  36H    basis set group =>   4
Atom  37H    basis set group =>   4
Atom  38H    basis set group =>   4
---------------------------------
AUXILIARY/J BASIS SET INFORMATION
---------------------------------
There are 6 groups of distinct atoms

 Group   1 Type Ir  : 11s5p5d3f3g contracted to 8s5p5d2f3g pattern {41111111/11111/11111/21/111}
 Group   2 Type C   : 12s5p4d2f1g contracted to 6s4p3d1f1g pattern {711111/2111/211/2/1}
 Group   3 Type N   : 12s5p4d2f1g contracted to 6s4p3d1f1g pattern {711111/2111/211/2/1}
 Group   4 Type H   : 5s2p1d contracted to 3s1p1d pattern {311/2/1}
 Group   5 Type S   : 14s5p5d2f1g contracted to 8s4p3d1f1g pattern {71111111/2111/311/2/1}
 Group   6 Type O   : 12s5p4d2f1g contracted to 6s4p3d1f1g pattern {711111/2111/211/2/1}

Atom   0Ir   basis set group =>   1
Atom   1C    basis set group =>   2
Atom   2C    basis set group =>   2
Atom   3C    basis set group =>   2
Atom   4C    basis set group =>   2
Atom   5C    basis set group =>   2
Atom   6N    basis set group =>   3
Atom   7C    basis set group =>   2
Atom   8C    basis set group =>   2
Atom   9H    basis set group =>   4
Atom  10H    basis set group =>   4
Atom  11H    basis set group =>   4
Atom  12C    basis set group =>   2
Atom  13H    basis set group =>   4
Atom  14H    basis set group =>   4
Atom  15H    basis set group =>   4
Atom  16H    basis set group =>   4
Atom  17C    basis set group =>   2
Atom  18C    basis set group =>   2
Atom  19H    basis set group =>   4
Atom  20C    basis set group =>   2
Atom  21C    basis set group =>   2
Atom  22S    basis set group =>   5
Atom  23C    basis set group =>   2
Atom  24H    basis set group =>   4
Atom  25H    basis set group =>   4
Atom  26H    basis set group =>   4
Atom  27H    basis set group =>   4
Atom  28H    basis set group =>   4
Atom  29H    basis set group =>   4
Atom  30O    basis set group =>   6
Atom  31O    basis set group =>   6
Atom  32C    basis set group =>   2
Atom  33C    basis set group =>   2
Atom  34H    basis set group =>   4
Atom  35H    basis set group =>   4
Atom  36H    basis set group =>   4
Atom  37H    basis set group =>   4
Atom  38H    basis set group =>   4
-------------------------
ECP PARAMETER INFORMATION
-------------------------

 Group 1, Type Ir ECP Def2-ECP (replacing 60 core electrons, lmax=3)

Atom   0Ir   ECP group =>   1

------------------------------------------------------------------------------
                           ORCA GTO INTEGRAL CALCULATION
                           -- RI-GTO INTEGRALS CHOSEN --
------------------------------------------------------------------------------
------------------------------------------------------------------------------
                   ___                                                        
                  /   \      - P O W E R E D   B Y -                         
                 /     \                                                     
                 |  |  |   _    _      __       _____    __    __             
                 |  |  |  | |  | |    /  \     |  _  \  |  |  /  |          
                  \  \/   | |  | |   /    \    | | | |  |  | /  /          
                 / \  \   | |__| |  /  /\  \   | |_| |  |  |/  /          
                |  |  |   |  __  | /  /__\  \  |    /   |      \           
                |  |  |   | |  | | |   __   |  |    \   |  |\   \          
                \     /   | |  | | |  |  |  |  | |\  \  |  | \   \       
                 \___/    |_|  |_| |__|  |__|  |_| \__\ |__|  \__/        
                                                                              
                      - O R C A' S   B I G   F R I E N D -                    
                                      &                                       
                       - I N T E G R A L  F E E D E R -                       
                                                                              
 v1 FN, 2020, v2 2021                                                         
------------------------------------------------------------------------------


Reading SHARK input file 5_2_orca.SHARKINP.tmp ... ok
----------------------
SHARK INTEGRAL PACKAGE
----------------------

Number of atoms                             ...     39
Number of basis functions                   ...    358
Number of shells                            ...    184
Maximum angular momentum                    ...      3
Integral batch strategy                     ... SHARK/LIBINT Hybrid
RI-J (if used) integral strategy            ... SPLIT-RIJ (Revised 2003 algorithm where possible)
Printlevel                                  ...      1
Contraction scheme used                     ... SEGMENTED contraction
Coulomb Range Separation                    ... NOT USED
Exchange Range Separation                   ... NOT USED
Finite Nucleus Model                        ... NOT USED
Auxiliary Coulomb fitting basis             ... AVAILABLE
   # of basis functions in Aux-J            ...   1231
   # of shells in Aux-J                     ...    405
   Maximum angular momentum in Aux-J        ...      4
Auxiliary J/K fitting basis                 ... NOT available
Auxiliary Correlation fitting basis         ... NOT available
Auxiliary 'external' fitting basis          ... NOT available
Integral threshold                          ...     2.500000e-11
Primitive cut-off                           ...     2.500000e-12
Primitive pair pre-selection threshold      ...     2.500000e-12

Calculating pre-screening integrals         ... done (  0.1 sec) Dimension = 184
Organizing shell pair data                  ... done (  0.1 sec)
Shell pair information
Total number of shell pairs                 ...     17020
Shell pairs after pre-screening             ...     12618
Total number of primitive shell pairs       ...     60705
Primitive shell pairs kept                  ...     28151
          la=0 lb=0:   4809 shell pairs
          la=1 lb=0:   4174 shell pairs
          la=1 lb=1:    848 shell pairs
          la=2 lb=0:   1680 shell pairs
          la=2 lb=1:    768 shell pairs
          la=2 lb=2:    168 shell pairs
          la=3 lb=0:    108 shell pairs
          la=3 lb=1:     41 shell pairs
          la=3 lb=2:     21 shell pairs
          la=3 lb=3:      1 shell pairs

Calculating one electron integrals          ... done (  0.1 sec)
Calculating ECP integrals                   ... done (  0.9 sec)
Calculating RI/J V-Matrix + Cholesky decomp.... done (  0.1 sec)
Calculating Nuclear repulsion               ... done (  0.0 sec) ENN=   1975.674832308707 Eh

SHARK setup successfully completed in   1.6 seconds

Maximum memory used throughout the entire GTOINT-calculation: 87.3 MB
-------------------------------------------------------------------------------
                                 ORCA SCF
-------------------------------------------------------------------------------

------------
SCF SETTINGS
------------
Hamiltonian:
 Density Functional     Method          .... DFT(GTOs)
 Exchange Functional    Exchange        .... PBE
   PBE kappa parameter   XKappa         ....  1.024500
   PBE mue parameter    XMuePBE         ....  0.123457
 Correlation Functional Correlation     .... PBE
   PBE beta parameter  CBetaPBE         ....  0.030000
 LDA part of GGA corr.  LDAOpt          .... PW91-LDA
 Gradients option       PostSCFGGA      .... off
 Hybrid DFT is turned on
   Fraction HF Exchange ScalHFX         ....  0.420000
   Scaling of DF-GGA-X  ScalDFX         ....  0.580000
   Scaling of DF-GGA-C  ScalDFC         ....  1.000000
   Scaling of DF-LDA-C  ScalLDAC        ....  1.000000
   Perturbative correction              ....  0.000000
   Density functional embedding theory  .... OFF
 RI-approximation to the Coulomb term is turned on
   Number of AuxJ basis functions       .... 1231
   RIJ-ON(X) (HFX calculated with O(N)) .... on
   Number of AuxJ basis functions       .... 1231
   RIJ-COSX (HFX calculated with COS-X)).... on


General Settings:
 Integral files         IntName         .... 5_2_orca
 Hartree-Fock type      HFTyp           .... RHF
 Total Charge           Charge          ....    1
 Multiplicity           Mult            ....    1
 Number of Electrons    NEL             ....  164
 Basis Dimension        Dim             ....  358
 Nuclear Repulsion      ENuc            ....   1975.6748323087 Eh

Convergence Acceleration:
 DIIS                   CNVDIIS         .... on
   Start iteration      DIISMaxIt       ....    12
   Startup error        DIISStart       ....  0.200000
   # of expansion vecs  DIISMaxEq       ....     5
   Bias factor          DIISBfac        ....   1.050
   Max. coefficient     DIISMaxC        ....  10.000
 Trust-Rad. Augm. Hess. CNVTRAH         .... auto
   Auto Start mean grad. ratio tolernc. ....  1.125000
   Auto Start start iteration           ....    20
   Auto Start num. interpolation iter.  ....    10
   Max. Number of Micro iterations      ....    16
   Max. Number of Macro iterations      .... Maxiter - #DIIS iter
   Number of Davidson start vectors     ....     2
   Converg. threshold I  (grad. norm)   ....   1.000e-05
   Converg. threshold II (energy diff.) ....   1.000e-08
   Grad. Scal. Fac. for Micro threshold ....   0.100
   Minimum threshold for Micro iter.    ....   0.010
   NR start threshold (gradient norm)   ....   0.001
   Initial trust radius                 ....   0.400
   Minimum AH scaling param. (alpha)    ....   1.000
   Maximum AH scaling param. (alpha)    .... 1000.000
   Orbital update algorithm             .... Taylor
   White noise on init. David. guess    .... on
   Maximum white noise                  ....   0.010
   Quad. conv. algorithm                .... NR
   COSX micro iterations for RIJONX calc.... off
 SOSCF                  CNVSOSCF        .... off
 Level Shifting         CNVShift        .... on
   Level shift para.    LevelShift      ....    0.2500
   Turn off err/grad.   ShiftErr        ....    0.0010
 Zerner damping         CNVZerner       .... off
 Static damping         CNVDamp         .... on
   Fraction old density DampFac         ....    0.7000
   Max. Damping (<1)    DampMax         ....    0.9800
   Min. Damping (>=0)   DampMin         ....    0.0000
   Turn off err/grad.   DampErr         ....    0.1000
 Fernandez-Rico         CNVRico         .... off

SCF Procedure:
 Maximum # iterations   MaxIter         ....   250
 SCF integral mode      SCFMode         .... Direct
   Integral package                     .... SHARK and LIBINT hybrid scheme
 Reset frequency        DirectResetFreq ....    20
 Integral Threshold     Thresh          ....  2.500e-11 Eh
 Primitive CutOff       TCut            ....  2.500e-12 Eh

Convergence Tolerance:
 Convergence Check Mode ConvCheckMode   .... Total+1el-Energy
 Convergence forced     ConvForced      .... 0
 Energy Change          TolE            ....  1.000e-08 Eh
 1-El. energy change                    ....  1.000e-05 Eh
 DIIS Error             TolErr          ....  5.000e-07


Diagonalization of the overlap matrix:
Smallest eigenvalue                        ... 1.378e-03
Time for diagonalization                   ...    0.021 sec
Threshold for overlap eigenvalues          ... 1.000e-08
Number of eigenvalues below threshold      ... 0
Time for construction of square roots      ...    0.009 sec
Total time needed                          ...    0.031 sec

--------------------
INITIAL GUESS: HCORE
--------------------
                      -----------------
                      INTIAL GUESS DONE 
                      -----------------
-------------------
DFT GRID GENERATION
-------------------

General Integration Accuracy     IntAcc      ... 4.159
Radial Grid Type                 RadialGrid  ... OptM3 with GC (2021)
Angular Grid (max. ang.)         AngularGrid ... 3 (Lebedev-194)
Angular grid pruning method      GridPruning ... 4 (adaptive)
Weight generation scheme         WeightScheme... Becke
Basis function cutoff            BFCut       ... 1.0000e-11
Integration weight cutoff        WCut        ... 1.0000e-14
Angular grids for H and He will be reduced by one unit
Partially contracted basis set               ... off
Rotationally invariant grid construction     ... off

Total number of grid points                  ...    93648
Total number of batches                      ...     1483
Average number of points per batch           ...       63
Average number of grid points per atom       ...     2401
Time for grid setup =    2.104 sec

--------------------
COSX GRID GENERATION
--------------------

GRIDX 1
-------
General Integration Accuracy     IntAcc      ... 3.816
Radial Grid Type                 RadialGrid  ... OptM3 with GC (2021)
Angular Grid (max. ang.)         AngularGrid ... 1 (Lebedev-50)
Angular grid pruning method      GridPruning ... 4 (adaptive)
Weight generation scheme         WeightScheme... Becke
Basis function cutoff            BFCut       ... 1.0000e-11
Integration weight cutoff        WCut        ... 1.0000e-14
Angular grids for H and He will be reduced by one unit
Partially contracted basis set               ... on
Rotationally invariant grid construction     ... off

Total number of grid points                  ...    23247
Total number of batches                      ...      382
Average number of points per batch           ...       60
Average number of grid points per atom       ...      596
UseSFitting                                  ... on

GRIDX 2
-------
General Integration Accuracy     IntAcc      ... 4.020
Radial Grid Type                 RadialGrid  ... OptM3 with GC (2021)
Angular Grid (max. ang.)         AngularGrid ... 2 (Lebedev-110)
Angular grid pruning method      GridPruning ... 4 (adaptive)
Weight generation scheme         WeightScheme... Becke
Basis function cutoff            BFCut       ... 1.0000e-11
Integration weight cutoff        WCut        ... 1.0000e-14
Angular grids for H and He will be reduced by one unit
Partially contracted basis set               ... on
Rotationally invariant grid construction     ... off

Total number of grid points                  ...    50556
Total number of batches                      ...      810
Average number of points per batch           ...       62
Average number of grid points per atom       ...     1296
UseSFitting                                  ... on

GRIDX 3
-------
General Integration Accuracy     IntAcc      ... 4.338
Radial Grid Type                 RadialGrid  ... OptM3 with GC (2021)
Angular Grid (max. ang.)         AngularGrid ... 3 (Lebedev-194)
Angular grid pruning method      GridPruning ... 4 (adaptive)
Weight generation scheme         WeightScheme... Becke
Basis function cutoff            BFCut       ... 1.0000e-11
Integration weight cutoff        WCut        ... 1.0000e-14
Angular grids for H and He will be reduced by one unit
Partially contracted basis set               ... on
Rotationally invariant grid construction     ... off

Total number of grid points                  ...   109426
Total number of batches                      ...     1731
Average number of points per batch           ...       63
Average number of grid points per atom       ...     2806
UseSFitting                                  ... on

Time for X-Grid setup             =    5.544 sec

--------------
SCF ITERATIONS
--------------
ITER       Energy         Delta-E        Max-DP      RMS-DP      [F,P]     Damp
               ***  Starting incremental Fock matrix formation  ***
  0   -876.5975007421   0.00000000000012.25829743  0.14418712  3.1604237 0.7000
  1  -1107.8535708163-231.25607007419711.07403486  0.12742452  1.4962186 0.7000
  2  -1172.0788947702 -64.225323953898 6.92176519  0.06930897  0.9743101 0.7000
  3  -1199.6599705466 -27.581075776428 3.47717172  0.04363260  0.6948639 0.7000
  4  -1212.0855013417 -12.425530795063 2.50214865  0.04058165  0.4549322 0.7000
  5  -1229.0541071982 -16.968605856502 1.96703744  0.03180580  0.3220604 0.7000
  6  -1237.8826713833  -8.828564185073 1.89873653  0.03193951  0.2384036 0.7000
  7  -1243.9152144821  -6.032543098849 1.94144700  0.02597417  0.2603502 0.7000
  8  -1246.0916970940  -2.176482611921 1.71002694  0.02575530  0.3166272 0.7000
  9  -1251.3085804962  -5.216883402224 1.86648351  0.02615776  0.2759842 0.7000
 10  -1253.3024775977  -1.993897101485 1.76438380  0.02662507  0.3090896 0.7000
 11  -1255.0970645375  -1.794586939782 1.83793223  0.02537378  0.2906588 0.7000
                               ***Turning on DIIS***
 12  -1254.4095830824   0.687481455086 1.65965420  0.02462846  0.3423690 0.7000
 13  -1256.8699920503  -2.460408967876 1.69980761  0.02130825  0.2928094 0.7000
 14  -1267.6753654853 -10.805373434951 1.22236892  0.01519578  0.1808736 0.7000
 15  -1273.9166086674  -6.241243182157 2.84564751  0.03589905  0.0875118 0.0000
 16  -1286.4454057973 -12.528797129855 0.03756917  0.00060138  0.2358562 0.7000
 17  -1286.6039942884  -0.158588491124 0.03932378  0.00090896  0.2282570 0.7000
 18  -1286.9016659459  -0.297671657487 0.03625171  0.00103946  0.2034164 0.7000
 19  -1287.2092006554  -0.307534709509 0.05197674  0.00113132  0.1735038 0.7000
               *** Restarting incremental Fock matrix formation ***
                                   *** Resetting DIIS ***

 WARNING: the maximum gradient error descreased on average only by a factor   1.1
          during the last 20 iterations

                      *** Initiating the TRAH-SCF procedure ***


TRAH GRIDX
----------

General Integration Accuracy     IntAcc      ... 3.067
Radial Grid Type                 RadialGrid  ... OptM3 with GC (2021)
Angular Grid (max. ang.)         AngularGrid ... 1 (Lebedev-50)
Angular grid pruning method      GridPruning ... 4 (adaptive)
Weight generation scheme         WeightScheme... Becke
Basis function cutoff            BFCut       ... 1.0000e-11
Integration weight cutoff        WCut        ... 1.0000e-14
Angular grids for H and He will be reduced by one unit
Partially contracted basis set               ... on
Rotationally invariant grid construction     ... off

Total number of grid points                  ...    12533
Total number of batches                      ...      220
Average number of points per batch           ...       56
Average number of grid points per atom       ...      321


TRAH GRID
---------

General Integration Accuracy     IntAcc      ... 3.467
Radial Grid Type                 RadialGrid  ... OptM3 with GC (2021)
Angular Grid (max. ang.)         AngularGrid ... 1 (Lebedev-50)
Angular grid pruning method      GridPruning ... 4 (adaptive)
Weight generation scheme         WeightScheme... Becke
Basis function cutoff            BFCut       ... 1.0000e-11
Integration weight cutoff        WCut        ... 1.0000e-14
Angular grids for H and He will be reduced by one unit
Partially contracted basis set               ... off
Rotationally invariant grid construction     ... off

Total number of grid points                  ...    29313
Total number of batches                      ...      474
Average number of points per batch           ...       61
Average number of grid points per atom       ...      752

 --------------------------------------------------------------------------------------------
   Iter.        energy            ||Error||_2        Shift      TRadius  Mac/Mic        Rej.
 --------------------------------------------------------------------------------------------
WARNING: 3 diagonal Hessian elements are negative!
    0      -1288.081494463772     1.280794e+00                     0.400 (TRAH MAcro)   No
WARNING : negative HOMO - LUMO gap : -0.076261
    0     dE    -1.016748e-01     1.850657e+00    -1.9855e-01      0.155 (TRAH MIcro)
    0     dE    -2.181180e-01     9.668504e-01    -5.7087e-01      0.400 (TRAH MIcro)
    0     dE    -2.485422e-01     3.812594e-01    -9.8156e-01      0.400 (TRAH MIcro)
    0     dE    -2.493852e-01     1.342771e-01    -1.2470e+00      0.379 (TRAH MIcro)
    0     dE    -2.489819e-01     4.932261e-02    -1.2506e+00      0.377 (TRAH MIcro)
    0     dE    -2.478877e-01     1.109103e-02    -1.2510e+00      0.374 (TRAH MIcro)
    0     dE    -2.476768e-01     3.412689e-03    -1.2510e+00      0.374 (TRAH MIcro)
    1      -1288.304986777228     3.246054e-01                     0.480 (TRAH MAcro)   No
    1     dE    -2.980246e-02     7.184762e-01    -5.7774e-02      0.178 (TRAH MIcro)
    1     dE    -6.549976e-02     2.700554e-01    -1.1255e-01      0.405 (TRAH MIcro)
    1     dE    -7.418407e-02     1.431272e-01    -1.2206e-01      0.464 (TRAH MIcro)
    1     dE    -7.635497e-02     9.158766e-02    -1.3088e-01      0.480 (TRAH MIcro)
    1     dE    -7.667420e-02     3.613345e-02    -1.4050e-01      0.480 (TRAH MIcro)
    1     dE    -7.675221e-02     1.761384e-02    -1.4353e-01      0.480 (TRAH MIcro)
    1     dE    -7.677501e-02     1.166372e-02    -1.4441e-01      0.480 (TRAH MIcro)
    1     dE    -7.677971e-02     3.697613e-03    -1.4461e-01      0.480 (TRAH MIcro)
    2      -1288.373262136631     1.303102e-01                     0.576 (TRAH MAcro)   No
    2     dE    -1.062152e-03     2.648768e-01    -2.1237e-03      0.016 (TRAH MIcro)
    2     dE    -2.985439e-03     7.039759e-02    -5.9411e-03      0.071 (TRAH MIcro)
    2     dE    -3.169371e-03     3.311961e-02    -6.2992e-03      0.079 (TRAH MIcro)
    2     dE    -3.197081e-03     7.728701e-03    -6.3518e-03      0.082 (TRAH MIcro)
    3      -1288.376585783008     1.245661e-02                     0.691 (TRAH MAcro)   No
    3     dE    -1.100722e-06     4.344285e-02    -2.2015e-06      0.000 (TRAH MIcro)
    3     dE    -2.711739e-05     1.777443e-02    -5.4233e-05      0.006 (TRAH MIcro)
    3     dE    -3.740118e-05     7.840454e-03    -7.4794e-05      0.011 (TRAH MIcro)
    3     dE    -3.978999e-05     1.876352e-03    -7.9568e-05      0.012 (TRAH MIcro)
    3     dE    -4.020222e-05     1.143495e-03    -8.0392e-05      0.012 (TRAH MIcro)
    4      -1288.376626172739     1.189280e-03                     0.829 (TRAH MAcro)   No
    4     dE    -1.593622e-08     5.620138e-03    -3.1933e-08      0.000 (TRAH MIcro)
    4     dE    -1.399139e-07     1.245087e-03    -2.7983e-07      0.000 (TRAH MIcro)
    4     dE    -2.035335e-07     8.643444e-04    -4.0707e-07      0.001 (TRAH MIcro)
    4     dE    -2.303838e-07     2.640069e-04    -4.6077e-07      0.001 (TRAH MIcro)
    4     dE    -2.356885e-07     1.163301e-04    -4.7138e-07      0.001 (TRAH MIcro)
    5      -1288.376626383927     1.162710e-04                           (NR   MAcro)
    5     dE    -1.143487e-09     6.296458e-05                           (NR   MIcro)
    5     dE    -1.576082e-09     3.375558e-05                           (NR   MIcro)
    5     dE    -1.656043e-09     1.781341e-05                           (NR   MIcro)
    5     dE    -1.679777e-09     1.053607e-05                           (NR   MIcro)
    5     dE    -1.695677e-09     7.061399e-06                           (NR   MIcro)
    5     dE    -1.697720e-09     3.616394e-06                           (NR   MIcro)
    5     dE    -1.698234e-09     1.088214e-06                           (NR   MIcro)
    5     dE    -1.698326e-09     4.890679e-07                           (NR   MIcro)
    6      -1288.376626384548     5.149361e-07                           (NR   MAcro)

               *****************************************************
               *                     SUCCESS                       *
               *           SCF CONVERGED AFTER  64 CYCLES          *
               *****************************************************

Old exchange energy                            =    -59.574120820 Eh
New exchange energy                            =    -59.574009476 Eh
Exchange energy change after final integration =      0.000111344 Eh
Total energy after final integration           =  -1288.376515041 Eh
Final COS-X integration done in                =    71.810 sec

----------------
TOTAL SCF ENERGY
----------------

Total Energy       :        -1288.37651504 Eh          -35058.50731 eV

Components:
Nuclear Repulsion  :         1975.67483231 Eh           53760.84534 eV
Electronic Energy  :        -3264.05134735 Eh          -88819.35265 eV
One Electron Energy:        -5708.06901508 Eh         -155324.45444 eV
Two Electron Energy:         2444.01766773 Eh           66505.10179 eV
Max COSX asymmetry :            0.00001493 Eh               0.00041 eV

Virial components:
Potential Energy   :        -2500.84917024 Eh          -68051.56560 eV
Kinetic Energy     :         1212.47265519 Eh           32993.05828 eV
Virial Ratio       :            2.06260253


DFT components:
N(Alpha)           :       82.000111675990 electrons
N(Beta)            :       82.000111675990 electrons
N(Total)           :      164.000223351980 electrons
E(X)               :      -79.494497080237 Eh       
E(C)               :       -7.429061371108 Eh       
E(XC)              :      -86.923558451345 Eh       
DFET-embed. en.    :        0.000000000000 Eh       

---------------
SCF CONVERGENCE
---------------

  Last Energy change         ...   -6.2187e-10  Tolerance :   1.0000e-08
  Last Orbital Gradient      ...    5.1494e-07  Tolerance :   1.0000e-05
  Last Orbital Rotation      ...    7.0921e-05

             **** THE GBW FILE WAS UPDATED (5_2_orca.gbw) ****
             **** DENSITY 5_2_orca.scfp WAS UPDATED ****
             **** ENERGY FILE WAS UPDATED (5_2_orca.en.tmp) ****
             **** THE GBW FILE WAS UPDATED (5_2_orca.gbw) ****
             **** DENSITY 5_2_orca.scfp WAS UPDATED ****
----------------
ORBITAL ENERGIES
----------------

  NO   OCC          E(Eh)            E(eV) 
   0   2.0000     -89.758425     -2442.4509 
   1   2.0000     -19.620183      -533.8923 
   2   2.0000     -19.578586      -532.7604 
   3   2.0000     -14.829520      -403.5318 
   4   2.0000     -10.685097      -290.7563 
   5   2.0000     -10.651598      -289.8447 
   6   2.0000     -10.645608      -289.6817 
   7   2.0000     -10.640985      -289.5559 
   8   2.0000     -10.637988      -289.4744 
   9   2.0000     -10.625393      -289.1317 
  10   2.0000     -10.621989      -289.0390 
  11   2.0000     -10.617306      -288.9116 
  12   2.0000     -10.611139      -288.7438 
  13   2.0000     -10.603978      -288.5489 
  14   2.0000     -10.584976      -288.0318 
  15   2.0000     -10.576907      -287.8123 
  16   2.0000     -10.548736      -287.0457 
  17   2.0000     -10.537359      -286.7361 
  18   2.0000     -10.535900      -286.6964 
  19   2.0000      -8.397389      -228.5046 
  20   2.0000      -6.287326      -171.0868 
  21   2.0000      -6.283868      -170.9928 
  22   2.0000      -6.282223      -170.9480 
  23   2.0000      -4.030324      -109.6707 
  24   2.0000      -2.349881       -63.9435 
  25   2.0000      -2.313022       -62.9405 
  26   2.0000      -2.312347       -62.9222 
  27   2.0000      -1.263373       -34.3781 
  28   2.0000      -1.191822       -32.4311 
  29   2.0000      -1.177062       -32.0295 
  30   2.0000      -1.168818       -31.8051 
  31   2.0000      -1.110988       -30.2315 
  32   2.0000      -1.011975       -27.5372 
  33   2.0000      -0.983331       -26.7578 
  34   2.0000      -0.981559       -26.7096 
  35   2.0000      -0.960416       -26.1342 
  36   2.0000      -0.946308       -25.7503 
  37   2.0000      -0.927938       -25.2505 
  38   2.0000      -0.891110       -24.2483 
  39   2.0000      -0.861907       -23.4537 
  40   2.0000      -0.791995       -21.5513 
  41   2.0000      -0.788135       -21.4462 
  42   2.0000      -0.786796       -21.4098 
  43   2.0000      -0.777427       -21.1549 
  44   2.0000      -0.767323       -20.8799 
  45   2.0000      -0.735370       -20.0104 
  46   2.0000      -0.728353       -19.8195 
  47   2.0000      -0.703974       -19.1561 
  48   2.0000      -0.681116       -18.5341 
  49   2.0000      -0.657465       -17.8905 
  50   2.0000      -0.653247       -17.7758 
  51   2.0000      -0.647060       -17.6074 
  52   2.0000      -0.640390       -17.4259 
  53   2.0000      -0.636661       -17.3244 
  54   2.0000      -0.627359       -17.0713 
  55   2.0000      -0.621884       -16.9223 
  56   2.0000      -0.610429       -16.6106 
  57   2.0000      -0.609323       -16.5805 
  58   2.0000      -0.607258       -16.5243 
  59   2.0000      -0.600072       -16.3288 
  60   2.0000      -0.589902       -16.0520 
  61   2.0000      -0.584566       -15.9069 
  62   2.0000      -0.564832       -15.3699 
  63   2.0000      -0.558988       -15.2108 
  64   2.0000      -0.553269       -15.0552 
  65   2.0000      -0.546586       -14.8734 
  66   2.0000      -0.544669       -14.8212 
  67   2.0000      -0.540443       -14.7062 
  68   2.0000      -0.530447       -14.4342 
  69   2.0000      -0.523466       -14.2442 
  70   2.0000      -0.518117       -14.0987 
  71   2.0000      -0.511879       -13.9289 
  72   2.0000      -0.504879       -13.7385 
  73   2.0000      -0.503430       -13.6990 
  74   2.0000      -0.474451       -12.9105 
  75   2.0000      -0.470768       -12.8102 
  76   2.0000      -0.456846       -12.4314 
  77   2.0000      -0.446585       -12.1522 
  78   2.0000      -0.426653       -11.6098 
  79   2.0000      -0.418760       -11.3950 
  80   2.0000      -0.412057       -11.2126 
  81   2.0000      -0.392651       -10.6846 
  82   0.0000      -0.226804        -6.1717 
  83   0.0000      -0.182609        -4.9690 
  84   0.0000      -0.147904        -4.0247 
  85   0.0000      -0.081193        -2.2094 
  86   0.0000      -0.080475        -2.1898 
  87   0.0000      -0.074905        -2.0383 
  88   0.0000      -0.070779        -1.9260 
  89   0.0000      -0.061221        -1.6659 
  90   0.0000      -0.047178        -1.2838 
  91   0.0000      -0.038196        -1.0394 
  92   0.0000       0.001142         0.0311 
  93   0.0000       0.004473         0.1217 
  94   0.0000       0.012036         0.3275 
  95   0.0000       0.021865         0.5950 
  96   0.0000       0.027347         0.7441 
  97   0.0000       0.042380         1.1532 
  98   0.0000       0.060563         1.6480 
  99   0.0000       0.066826         1.8184 
 100   0.0000       0.072047         1.9605 
 101   0.0000       0.078131         2.1261 
 102   0.0000       0.079146         2.1537 
 103   0.0000       0.082274         2.2388 
 104   0.0000       0.085300         2.3211 
 105   0.0000       0.091599         2.4925 
 106   0.0000       0.093726         2.5504 
 107   0.0000       0.098984         2.6935 
 108   0.0000       0.105200         2.8626 
 109   0.0000       0.112569         3.0631 
 110   0.0000       0.116333         3.1656 
 111   0.0000       0.118675         3.2293 
 112   0.0000       0.124700         3.3933 
 113   0.0000       0.129504         3.5240 
 114   0.0000       0.132278         3.5995 
 115   0.0000       0.136338         3.7099 
 116   0.0000       0.143864         3.9147 
 117   0.0000       0.146195         3.9782 
 118   0.0000       0.159635         4.3439 
 119   0.0000       0.161601         4.3974 
 120   0.0000       0.174005         4.7349 
 121   0.0000       0.178620         4.8605 
 122   0.0000       0.190275         5.1777 
 123   0.0000       0.190931         5.1955 
 124   0.0000       0.199688         5.4338 
 125   0.0000       0.224570         6.1109 
 126   0.0000       0.245274         6.6743 
 127   0.0000       0.245829         6.6893 
 128   0.0000       0.279068         7.5938 
 129   0.0000       0.288698         7.8559 
 130   0.0000       0.307553         8.3689 
 131   0.0000       0.312233         8.4963 
 132   0.0000       0.316282         8.6065 
 133   0.0000       0.340498         9.2654 
 134   0.0000       0.345634         9.4052 
 135   0.0000       0.357297         9.7226 
 136   0.0000       0.369150        10.0451 
 137   0.0000       0.379782        10.3344 
 138   0.0000       0.382414        10.4060 
 139   0.0000       0.395203        10.7540 
 140   0.0000       0.412201        11.2166 
 141   0.0000       0.420547        11.4437 
 142   0.0000       0.428458        11.6589 
 143   0.0000       0.433376        11.7927 
 144   0.0000       0.442716        12.0469 
 145   0.0000       0.453746        12.3470 
 146   0.0000       0.456300        12.4166 
 147   0.0000       0.462241        12.5782 
 148   0.0000       0.469494        12.7756 
 149   0.0000       0.475539        12.9401 
 150   0.0000       0.487955        13.2779 
 151   0.0000       0.493120        13.4185 
 152   0.0000       0.498077        13.5534 
 153   0.0000       0.508276        13.8309 
 154   0.0000       0.512886        13.9563 
 155   0.0000       0.520299        14.1580 
 156   0.0000       0.525723        14.3057 
 157   0.0000       0.533907        14.5283 
 158   0.0000       0.543342        14.7851 
 159   0.0000       0.545481        14.8433 
 160   0.0000       0.551294        15.0015 
 161   0.0000       0.561711        15.2849 
 162   0.0000       0.571322        15.5465 
 163   0.0000       0.579619        15.7722 
 164   0.0000       0.590160        16.0591 
 165   0.0000       0.593326        16.1452 
 166   0.0000       0.604682        16.4542 
 167   0.0000       0.613215        16.6864 
 168   0.0000       0.627235        17.0679 
 169   0.0000       0.629028        17.1167 
 170   0.0000       0.635625        17.2962 
 171   0.0000       0.641586        17.4584 
 172   0.0000       0.671108        18.2618 
 173   0.0000       0.686379        18.6773 
 174   0.0000       0.693092        18.8600 
 175   0.0000       0.702067        19.1042 
 176   0.0000       0.715234        19.4625 
 177   0.0000       0.717667        19.5287 
 178   0.0000       0.720827        19.6147 
 179   0.0000       0.729662        19.8551 
 180   0.0000       0.733377        19.9562 
 181   0.0000       0.739356        20.1189 
 182   0.0000       0.755672        20.5629 
 183   0.0000       0.765845        20.8397 
 184   0.0000       0.778743        21.1907 
 185   0.0000       0.785815        21.3831 
 186   0.0000       0.802103        21.8263 
 187   0.0000       0.811298        22.0765 
 188   0.0000       0.822429        22.3794 
 189   0.0000       0.832086        22.6422 
 190   0.0000       0.848472        23.0881 
 191   0.0000       0.851939        23.1824 
 192   0.0000       0.861321        23.4377 
 193   0.0000       0.866237        23.5715 
 194   0.0000       0.868722        23.6391 
 195   0.0000       0.887492        24.1499 
 196   0.0000       0.892170        24.2772 
 197   0.0000       0.901065        24.5192 
 198   0.0000       0.907212        24.6865 
 199   0.0000       0.913383        24.8544 
 200   0.0000       0.923314        25.1246 
 201   0.0000       0.932783        25.3823 
 202   0.0000       0.937836        25.5198 
 203   0.0000       0.941051        25.6073 
 204   0.0000       0.946203        25.7475 
 205   0.0000       0.953516        25.9465 
 206   0.0000       0.960382        26.1333 
 207   0.0000       0.961847        26.1732 
 208   0.0000       0.975957        26.5571 
 209   0.0000       0.979089        26.6424 
 210   0.0000       0.985850        26.8263 
 211   0.0000       0.993968        27.0472 
 212   0.0000       0.998207        27.1626 
 213   0.0000       1.014531        27.6068 
 214   0.0000       1.034439        28.1485 
 215   0.0000       1.038502        28.2591 
 216   0.0000       1.057054        28.7639 
 217   0.0000       1.065785        29.0015 
 218   0.0000       1.071306        29.1517 
 219   0.0000       1.088767        29.6268 
 220   0.0000       1.099054        29.9068 
 221   0.0000       1.107152        30.1271 
 222   0.0000       1.128344        30.7038 
 223   0.0000       1.133329        30.8394 
 224   0.0000       1.161302        31.6006 
 225   0.0000       1.170862        31.8608 
 226   0.0000       1.184541        32.2330 
 227   0.0000       1.198772        32.6202 
 228   0.0000       1.199394        32.6372 
 229   0.0000       1.220859        33.2213 
 230   0.0000       1.223378        33.2898 
 231   0.0000       1.230769        33.4909 
 232   0.0000       1.258176        34.2367 
 233   0.0000       1.263587        34.3839 
 234   0.0000       1.278702        34.7952 
 235   0.0000       1.282696        34.9039 
 236   0.0000       1.291111        35.1329 
 237   0.0000       1.310683        35.6655 
 238   0.0000       1.330069        36.1930 
 239   0.0000       1.345016        36.5997 
 240   0.0000       1.352952        36.8157 
 241   0.0000       1.358602        36.9694 
 242   0.0000       1.395216        37.9658 
 243   0.0000       1.397474        38.0272 
 244   0.0000       1.412677        38.4409 
 245   0.0000       1.419792        38.6345 
 246   0.0000       1.449536        39.4439 
 247   0.0000       1.468193        39.9516 
 248   0.0000       1.482374        40.3374 
 249   0.0000       1.495174        40.6858 
 250   0.0000       1.508286        41.0425 
 251   0.0000       1.527558        41.5670 
 252   0.0000       1.562714        42.5236 
 253   0.0000       1.610215        43.8162 
 254   0.0000       1.628401        44.3111 
 255   0.0000       1.643640        44.7257 
 256   0.0000       1.659225        45.1498 
 257   0.0000       1.684431        45.8357 
 258   0.0000       1.693482        46.0820 
 259   0.0000       1.704246        46.3749 
 260   0.0000       1.719544        46.7912 
 261   0.0000       1.726649        46.9845 
 262   0.0000       1.744150        47.4607 
 263   0.0000       1.758160        47.8420 
 264   0.0000       1.768760        48.1304 
 265   0.0000       1.782415        48.5020 
 266   0.0000       1.802571        49.0505 
 267   0.0000       1.810919        49.2776 
 268   0.0000       1.822607        49.5956 
 269   0.0000       1.850623        50.3580 
 270   0.0000       1.868186        50.8359 
 271   0.0000       1.880469        51.1702 
 272   0.0000       1.885132        51.2970 
 273   0.0000       1.890515        51.4435 
 274   0.0000       1.903218        51.7892 
 275   0.0000       1.921301        52.2813 
 276   0.0000       1.930294        52.5260 
 277   0.0000       1.932169        52.5770 
 278   0.0000       1.939651        52.7806 
 279   0.0000       1.958555        53.2950 
 280   0.0000       1.968122        53.5553 
 281   0.0000       1.978287        53.8319 
 282   0.0000       1.989852        54.1466 
 283   0.0000       1.997057        54.3427 
 284   0.0000       2.004553        54.5467 
 285   0.0000       2.024726        55.0956 
 286   0.0000       2.047092        55.7042 
 287   0.0000       2.056848        55.9697 
 288   0.0000       2.063187        56.1422 
 289   0.0000       2.077573        56.5336 
 290   0.0000       2.084953        56.7345 
 291   0.0000       2.097683        57.0809 
 292   0.0000       2.116574        57.5949 
 293   0.0000       2.152004        58.5590 
 294   0.0000       2.165064        58.9144 
 295   0.0000       2.170719        59.0683 
 296   0.0000       2.181620        59.3649 
 297   0.0000       2.194635        59.7191 
 298   0.0000       2.211814        60.1865 
 299   0.0000       2.220669        60.4275 
 300   0.0000       2.235031        60.8183 
 301   0.0000       2.238599        60.9154 
 302   0.0000       2.257284        61.4238 
 303   0.0000       2.267534        61.7027 
 304   0.0000       2.286119        62.2085 
 305   0.0000       2.301428        62.6251 
 306   0.0000       2.311066        62.8873 
 307   0.0000       2.327638        63.3383 
 308   0.0000       2.363648        64.3181 
 309   0.0000       2.380897        64.7875 
 310   0.0000       2.398585        65.2688 
 311   0.0000       2.414661        65.7063 
 312   0.0000       2.418955        65.8231 
 313   0.0000       2.438365        66.3513 
 314   0.0000       2.444010        66.5049 
 315   0.0000       2.459895        66.9371 
 316   0.0000       2.490609        67.7729 
 317   0.0000       2.504651        68.1550 
 318   0.0000       2.535848        69.0039 
 319   0.0000       2.550672        69.4073 
 320   0.0000       2.562651        69.7333 
 321   0.0000       2.565741        69.8173 
 322   0.0000       2.577040        70.1248 
 323   0.0000       2.604638        70.8758 
 324   0.0000       2.628194        71.5168 
 325   0.0000       2.656363        72.2833 
 326   0.0000       2.712346        73.8067 
 327   0.0000       2.742959        74.6397 
 328   0.0000       2.787216        75.8440 
 329   0.0000       2.814062        76.5745 
 330   0.0000       2.819809        76.7309 
 331   0.0000       2.857509        77.7568 
 332   0.0000       2.868301        78.0504 
 333   0.0000       2.873937        78.2038 
 334   0.0000       2.896623        78.8211 
 335   0.0000       2.958584        80.5072 
 336   0.0000       3.017590        82.1128 
 337   0.0000       3.057312        83.1937 
 338   0.0000      13.302205       361.9714 
 339   0.0000      13.414845       365.0365 
 340   0.0000      13.479410       366.7934 
 341   0.0000      13.528146       368.1196 
 342   0.0000      13.564850       369.1183 
 343   0.0000      13.759378       374.4117 
 344   0.0000      13.771066       374.7298 
 345   0.0000      13.830347       376.3429 
 346   0.0000      13.852557       376.9473 
 347   0.0000      13.932961       379.1351 
 348   0.0000      13.961372       379.9082 
 349   0.0000      13.977323       380.3423 
 350   0.0000      14.106715       383.8632 
 351   0.0000      14.154612       385.1666 
 352   0.0000      14.163777       385.4160 
 353   0.0000      19.278529       524.5954 
 354   0.0000      25.580621       696.0841 
 355   0.0000      25.636942       697.6167 
 356   0.0000      57.174882      1555.8076 
 357   0.0000     359.488345      9782.1752 

                    ********************************
                    * MULLIKEN POPULATION ANALYSIS *
                    ********************************

-----------------------
MULLIKEN ATOMIC CHARGES
-----------------------
   0 Ir:    0.669120
   1 C :   -0.243868
   2 C :   -0.208474
   3 C :   -0.228455
   4 C :   -0.225656
   5 C :   -0.204199
   6 N :   -0.483929
   7 C :   -0.125159
   8 C :   -0.634529
   9 H :    0.245820
  10 H :    0.222978
  11 H :    0.274287
  12 C :   -0.672907
  13 H :    0.259188
  14 H :    0.263853
  15 H :    0.230420
  16 H :    0.247478
  17 C :    0.107124
  18 C :   -0.237570
  19 H :    0.270882
  20 C :   -0.321902
  21 C :   -0.163266
  22 S :    0.330443
  23 C :   -0.400294
  24 H :    0.388012
  25 H :    0.264857
  26 H :    0.296460
  27 H :    0.290198
  28 H :    0.299280
  29 H :    0.291522
  30 O :   -0.517953
  31 O :   -0.560654
  32 C :    0.643330
  33 C :   -0.745786
  34 H :    0.271416
  35 H :    0.274486
  36 H :    0.257918
  37 H :    0.291062
  38 H :    0.284469
Sum of atomic charges:    1.0000000

--------------------------------
MULLIKEN REDUCED ORBITAL CHARGES
--------------------------------
  0 Irs       :     2.533428  s :     2.533428
      pz      :     2.083080  p :     6.242460
      px      :     2.094128
      py      :     2.065252
      dz2     :     1.773652  d :     7.507833
      dxz     :     1.584123
      dyz     :     1.274436
      dx2y2   :     1.535309
      dxy     :     1.340313
      f0      :     0.004672  f :     0.047159
      f+1     :     0.003707
      f-1     :     0.007529
      f+2     :     0.007990
      f-2     :     0.008194
      f+3     :     0.006515
      f-3     :     0.008553
  1 C s       :     3.326668  s :     3.326668
      pz      :     0.900345  p :     2.868825
      px      :     1.031456
      py      :     0.937024
      dz2     :     0.010790  d :     0.048375
      dxz     :     0.012181
      dyz     :     0.008812
      dx2y2   :     0.006984
      dxy     :     0.009608
  2 C s       :     3.330382  s :     3.330382
      pz      :     1.032419  p :     2.828859
      px      :     0.919744
      py      :     0.876696
      dz2     :     0.011624  d :     0.049233
      dxz     :     0.013413
      dyz     :     0.008895
      dx2y2   :     0.007613
      dxy     :     0.007688
  3 C s       :     3.332079  s :     3.332079
      pz      :     0.960493  p :     2.844433
      px      :     1.020546
      py      :     0.863394
      dz2     :     0.011795  d :     0.051943
      dxz     :     0.013062
      dyz     :     0.007361
      dx2y2   :     0.010208
      dxy     :     0.009517
  4 C s       :     3.292910  s :     3.292910
      pz      :     1.002865  p :     2.886197
      px      :     0.902704
      py      :     0.980628
      dz2     :     0.010169  d :     0.046549
      dxz     :     0.011317
      dyz     :     0.009059
      dx2y2   :     0.007997
      dxy     :     0.008006
  5 C s       :     3.294460  s :     3.294460
      pz      :     0.908686  p :     2.862808
      px      :     0.967411
      py      :     0.986711
      dz2     :     0.010743  d :     0.046931
      dxz     :     0.012410
      dyz     :     0.008019
      dx2y2   :     0.007492
      dxy     :     0.008267
  6 N s       :     3.626013  s :     3.626013
      pz      :     1.218596  p :     3.818359
      px      :     1.300226
      py      :     1.299537
      dz2     :     0.011468  d :     0.039557
      dxz     :     0.008986
      dyz     :     0.008822
      dx2y2   :     0.006054
      dxy     :     0.004227
  7 C s       :     3.258535  s :     3.258535
      pz      :     1.042056  p :     2.806351
      px      :     0.728832
      py      :     1.035463
      dz2     :     0.009099  d :     0.060272
      dxz     :     0.011059
      dyz     :     0.014284
      dx2y2   :     0.016557
      dxy     :     0.009274
  8 C s       :     3.383720  s :     3.383720
      pz      :     1.141723  p :     3.214690
      px      :     1.132448
      py      :     0.940519
      dz2     :     0.005034  d :     0.036120
      dxz     :     0.006636
      dyz     :     0.011156
      dx2y2   :     0.009810
      dxy     :     0.003482
  9 H s       :     0.754180  s :     0.754180
 10 H s       :     0.777022  s :     0.777022
 11 H s       :     0.725713  s :     0.725713
 12 C s       :     3.392235  s :     3.392235
      pz      :     1.051666  p :     3.244565
      px      :     1.082791
      py      :     1.110108
      dz2     :     0.004630  d :     0.036107
      dxz     :     0.008372
      dyz     :     0.010124
      dx2y2   :     0.009204
      dxy     :     0.003776
 13 H s       :     0.740812  s :     0.740812
 14 H s       :     0.736147  s :     0.736147
 15 H s       :     0.769580  s :     0.769580
 16 H s       :     0.752522  s :     0.752522
 17 C s       :     3.183054  s :     3.183054
      pz      :     0.839236  p :     2.646792
      px      :     0.977130
      py      :     0.830426
      dz2     :     0.015246  d :     0.063030
      dxz     :     0.022313
      dyz     :     0.012654
      dx2y2   :     0.006121
      dxy     :     0.006697
 18 C s       :     3.249847  s :     3.249847
      pz      :     0.923080  p :     2.943120
      px      :     0.926099
      py      :     1.093941
      dz2     :     0.013599  d :     0.044603
      dxz     :     0.011579
      dyz     :     0.006764
      dx2y2   :     0.007603
      dxy     :     0.005058
 19 H s       :     0.729118  s :     0.729118
 20 C s       :     3.366141  s :     3.366141
      pz      :     1.058511  p :     2.918384
      px      :     0.858556
      py      :     1.001317
      dz2     :     0.004360  d :     0.037377
      dxz     :     0.013372
      dyz     :     0.006298
      dx2y2   :     0.006468
      dxy     :     0.006879
 21 C s       :     3.245471  s :     3.245471
      pz      :     0.874730  p :     2.876742
      px      :     1.045614
      py      :     0.956398
      dz2     :     0.011454  d :     0.041052
      dxz     :     0.012039
      dyz     :     0.007173
      dx2y2   :     0.007590
      dxy     :     0.002795
 22 S s       :     5.794939  s :     5.794939
      pz      :     3.083538  p :     9.752812
      px      :     3.094139
      py      :     3.575135
      dz2     :     0.044326  d :     0.121806
      dxz     :     0.016491
      dyz     :     0.016900
      dx2y2   :     0.023392
      dxy     :     0.020697
 23 C s       :     3.334897  s :     3.334897
      pz      :     1.055699  p :     3.024576
      px      :     0.916449
      py      :     1.052428
      dz2     :     0.011679  d :     0.040821
      dxz     :     0.011588
      dyz     :     0.005429
      dx2y2   :     0.006758
      dxy     :     0.005367
 24 H s       :     0.611988  s :     0.611988
 25 H s       :     0.735143  s :     0.735143
 26 H s       :     0.703540  s :     0.703540
 27 H s       :     0.709802  s :     0.709802
 28 H s       :     0.700720  s :     0.700720
 29 H s       :     0.708478  s :     0.708478
 30 O s       :     3.817438  s :     3.817438
      pz      :     1.439836  p :     4.676792
      px      :     1.459906
      py      :     1.777051
      dz2     :     0.006202  d :     0.023723
      dxz     :     0.006961
      dyz     :     0.002628
      dx2y2   :     0.004584
      dxy     :     0.003348
 31 O s       :     3.842439  s :     3.842439
      pz      :     1.685547  p :     4.693893
      px      :     1.613749
      py      :     1.394597
      dz2     :     0.003398  d :     0.024322
      dxz     :     0.003577
      dyz     :     0.005557
      dx2y2   :     0.004496
      dxy     :     0.007294
 32 C s       :     3.002997  s :     3.002997
      pz      :     0.740192  p :     2.231537
      px      :     0.716107
      py      :     0.775238
      dz2     :     0.020702  d :     0.122135
      dxz     :     0.018858
      dyz     :     0.024727
      dx2y2   :     0.027770
      dxy     :     0.030079
 33 C s       :     3.422986  s :     3.422986
      pz      :     1.138443  p :     3.288953
      px      :     1.183268
      py      :     0.967242
      dz2     :     0.002077  d :     0.033847
      dxz     :     0.009870
      dyz     :     0.009518
      dx2y2   :     0.010480
      dxy     :     0.001901
 34 H s       :     0.728584  s :     0.728584
 35 H s       :     0.725514  s :     0.725514
 36 H s       :     0.742082  s :     0.742082
 37 H s       :     0.708938  s :     0.708938
 38 H s       :     0.715531  s :     0.715531


                     *******************************
                     * LOEWDIN POPULATION ANALYSIS *
                     *******************************

----------------------
LOEWDIN ATOMIC CHARGES
----------------------
   0 Ir:   -0.143189
   1 C :   -0.014440
   2 C :   -0.012354
   3 C :   -0.002135
   4 C :   -0.087039
   5 C :   -0.082635
   6 N :   -0.038911
   7 C :   -0.053580
   8 C :   -0.352958
   9 H :    0.146834
  10 H :    0.135245
  11 H :    0.150838
  12 C :   -0.361012
  13 H :    0.144905
  14 H :    0.154980
  15 H :    0.134220
  16 H :    0.138679
  17 C :    0.026902
  18 C :   -0.206234
  19 H :    0.153002
  20 C :   -0.187047
  21 C :   -0.150887
  22 S :    0.482196
  23 C :   -0.262518
  24 H :    0.268027
  25 H :    0.156696
  26 H :    0.169280
  27 H :    0.185398
  28 H :    0.191564
  29 H :    0.185892
  30 O :   -0.318578
  31 O :   -0.252352
  32 C :    0.215012
  33 C :   -0.375828
  34 H :    0.167879
  35 H :    0.172769
  36 H :    0.151290
  37 H :    0.187533
  38 H :    0.182554

-------------------------------
LOEWDIN REDUCED ORBITAL CHARGES
-------------------------------
  0 Irs       :     2.472752  s :     2.472752
      pz      :     2.236450  p :     6.717378
      px      :     2.219363
      py      :     2.261565
      dz2     :     1.811821  d :     7.874839
      dxz     :     1.670202
      dyz     :     1.368864
      dx2y2   :     1.603377
      dxy     :     1.420575
      f0      :     0.008161  f :     0.078221
      f+1     :     0.006114
      f-1     :     0.011865
      f+2     :     0.013847
      f-2     :     0.013928
      f+3     :     0.010039
      f-3     :     0.014267
  1 C s       :     2.881371  s :     2.881371
      pz      :     1.038933  p :     3.031318
      px      :     1.075875
      py      :     0.916509
      dz2     :     0.024825  d :     0.101752
      dxz     :     0.029297
      dyz     :     0.018898
      dx2y2   :     0.011612
      dxy     :     0.017120
  2 C s       :     2.880948  s :     2.880948
      pz      :     1.066023  p :     3.028014
      px      :     1.043653
      py      :     0.918337
      dz2     :     0.023624  d :     0.103392
      dxz     :     0.029603
      dyz     :     0.016697
      dx2y2   :     0.017100
      dxy     :     0.016368
  3 C s       :     2.872549  s :     2.872549
      pz      :     1.051802  p :     3.020941
      px      :     1.065187
      py      :     0.903952
      dz2     :     0.027595  d :     0.108644
      dxz     :     0.027369
      dyz     :     0.014956
      dx2y2   :     0.019144
      dxy     :     0.019580
  4 C s       :     2.866250  s :     2.866250
      pz      :     1.081740  p :     3.120235
      px      :     1.045852
      py      :     0.992643
      dz2     :     0.021460  d :     0.100555
      dxz     :     0.027744
      dyz     :     0.016633
      dx2y2   :     0.017859
      dxy     :     0.016858
  5 C s       :     2.867456  s :     2.867456
      pz      :     1.035002  p :     3.114727
      px      :     1.061438
      py      :     1.018287
      dz2     :     0.025074  d :     0.100452
      dxz     :     0.028847
      dyz     :     0.016297
      dx2y2   :     0.015208
      dxy     :     0.015027
  6 N s       :     3.131943  s :     3.131943
      pz      :     1.283178  p :     3.815947
      px      :     1.277934
      py      :     1.254835
      dz2     :     0.027523  d :     0.091021
      dxz     :     0.025549
      dyz     :     0.016349
      dx2y2   :     0.012347
      dxy     :     0.009253
  7 C s       :     2.869678  s :     2.869678
      pz      :     1.071790  p :     3.055132
      px      :     0.881272
      py      :     1.102069
      dz2     :     0.018970  d :     0.128770
      dxz     :     0.024717
      dyz     :     0.027476
      dx2y2   :     0.037324
      dxy     :     0.020282
  8 C s       :     2.950470  s :     2.950470
      pz      :     1.139214  p :     3.334201
      px      :     1.137638
      py      :     1.057349
      dz2     :     0.009037  d :     0.068287
      dxz     :     0.010751
      dyz     :     0.021516
      dx2y2   :     0.019228
      dxy     :     0.007755
  9 H s       :     0.853166  s :     0.853166
 10 H s       :     0.864755  s :     0.864755
 11 H s       :     0.849162  s :     0.849162
 12 C s       :     2.954260  s :     2.954260
      pz      :     1.107988  p :     3.339109
      px      :     1.108840
      py      :     1.122281
      dz2     :     0.008864  d :     0.067643
      dxz     :     0.016701
      dyz     :     0.018546
      dx2y2   :     0.016096
      dxy     :     0.007437
 13 H s       :     0.855095  s :     0.855095
 14 H s       :     0.845020  s :     0.845020
 15 H s       :     0.865780  s :     0.865780
 16 H s       :     0.861321  s :     0.861321
 17 C s       :     2.873140  s :     2.873140
      pz      :     1.022021  p :     2.958401
      px      :     1.078355
      py      :     0.858026
      dz2     :     0.036305  d :     0.141557
      dxz     :     0.053804
      dyz     :     0.026002
      dx2y2   :     0.012011
      dxy     :     0.013436
 18 C s       :     2.912024  s :     2.912024
      pz      :     1.022369  p :     3.193007
      px      :     1.093540
      py      :     1.077098
      dz2     :     0.032005  d :     0.101202
      dxz     :     0.029373
      dyz     :     0.012910
      dx2y2   :     0.016823
      dxy     :     0.010092
 19 H s       :     0.846998  s :     0.846998
 20 C s       :     2.952606  s :     2.952606
      pz      :     1.130256  p :     3.153419
      px      :     1.034291
      py      :     0.988871
      dz2     :     0.009931  d :     0.081022
      dxz     :     0.032557
      dyz     :     0.009256
      dx2y2   :     0.015535
      dxy     :     0.013743
 21 C s       :     2.907748  s :     2.907748
      pz      :     1.080314  p :     3.149318
      px      :     1.096276
      py      :     0.972728
      dz2     :     0.029447  d :     0.093821
      dxz     :     0.032426
      dyz     :     0.014810
      dx2y2   :     0.012528
      dxy     :     0.004609
 22 S s       :     5.509467  s :     5.509467
      pz      :     3.173945  p :     9.856445
      px      :     3.153773
      py      :     3.528727
      dz2     :     0.058365  d :     0.151892
      dxz     :     0.020376
      dyz     :     0.019111
      dx2y2   :     0.030568
      dxy     :     0.023473
 23 C s       :     2.964622  s :     2.964622
      pz      :     1.134967  p :     3.211552
      px      :     1.020371
      py      :     1.056214
      dz2     :     0.027751  d :     0.086344
      dxz     :     0.025455
      dyz     :     0.009278
      dx2y2   :     0.013442
      dxy     :     0.010418
 24 H s       :     0.731973  s :     0.731973
 25 H s       :     0.843304  s :     0.843304
 26 H s       :     0.830720  s :     0.830720
 27 H s       :     0.814602  s :     0.814602
 28 H s       :     0.808436  s :     0.808436
 29 H s       :     0.814108  s :     0.814108
 30 O s       :     3.545778  s :     3.545778
      pz      :     1.474353  p :     4.727001
      px      :     1.503930
      py      :     1.748719
      dz2     :     0.008569  d :     0.045799
      dxz     :     0.016478
      dyz     :     0.005975
      dx2y2   :     0.008560
      dxy     :     0.006216
 31 O s       :     3.497415  s :     3.497415
      pz      :     1.669072  p :     4.705054
      px      :     1.619404
      py      :     1.416578
      dz2     :     0.006982  d :     0.049883
      dxz     :     0.005723
      dyz     :     0.010888
      dx2y2   :     0.009860
      dxy     :     0.016430
 32 C s       :     2.841420  s :     2.841420
      pz      :     0.844794  p :     2.673395
      px      :     0.857326
      py      :     0.971275
      dz2     :     0.042340  d :     0.270173
      dxz     :     0.046155
      dyz     :     0.053712
      dx2y2   :     0.060344
      dxy     :     0.067623
 33 C s       :     2.957692  s :     2.957692
      pz      :     1.136356  p :     3.354453
      px      :     1.151979
      py      :     1.066117
      dz2     :     0.003499  d :     0.063683
      dxz     :     0.016516
      dyz     :     0.019217
      dx2y2   :     0.020471
      dxy     :     0.003981
 34 H s       :     0.832121  s :     0.832121
 35 H s       :     0.827231  s :     0.827231
 36 H s       :     0.848710  s :     0.848710
 37 H s       :     0.812467  s :     0.812467
 38 H s       :     0.817446  s :     0.817446


                      *****************************
                      * MAYER POPULATION ANALYSIS *
                      *****************************

  NA   - Mulliken gross atomic population
  ZA   - Total nuclear charge
  QA   - Mulliken gross atomic charge
  VA   - Mayer's total valence
  BVA  - Mayer's bonded valence
  FA   - Mayer's free valence

  ATOM       NA         ZA         QA         VA         BVA        FA
  0 Ir    16.3309    17.0000     0.6691     3.7962     3.7962    -0.0000
  1 C      6.2439     6.0000    -0.2439     3.7071     3.7071     0.0000
  2 C      6.2085     6.0000    -0.2085     3.6972     3.6972    -0.0000
  3 C      6.2285     6.0000    -0.2285     3.7206     3.7206    -0.0000
  4 C      6.2257     6.0000    -0.2257     3.6944     3.6944    -0.0000
  5 C      6.2042     6.0000    -0.2042     3.6956     3.6956    -0.0000
  6 N      7.4839     7.0000    -0.4839     3.1986     3.1986    -0.0000
  7 C      6.1252     6.0000    -0.1252     3.7166     3.7166     0.0000
  8 C      6.6345     6.0000    -0.6345     3.6602     3.6602    -0.0000
  9 H      0.7542     1.0000     0.2458     0.9020     0.9020    -0.0000
 10 H      0.7770     1.0000     0.2230     0.9147     0.9147     0.0000
 11 H      0.7257     1.0000     0.2743     0.9002     0.9002    -0.0000
 12 C      6.6729     6.0000    -0.6729     3.6857     3.6857     0.0000
 13 H      0.7408     1.0000     0.2592     0.8781     0.8781    -0.0000
 14 H      0.7361     1.0000     0.2639     0.8996     0.8996     0.0000
 15 H      0.7696     1.0000     0.2304     0.9095     0.9095     0.0000
 16 H      0.7525     1.0000     0.2475     0.9019     0.9019    -0.0000
 17 C      5.8929     6.0000     0.1071     3.6443     3.6443     0.0000
 18 C      6.2376     6.0000    -0.2376     3.7768     3.7768     0.0000
 19 H      0.7291     1.0000     0.2709     0.8935     0.8935    -0.0000
 20 C      6.3219     6.0000    -0.3219     3.6033     3.6033     0.0000
 21 C      6.1633     6.0000    -0.1633     3.7566     3.7566     0.0000
 22 S     15.6696    16.0000     0.3304     2.5916     2.5916     0.0000
 23 C      6.4003     6.0000    -0.4003     3.7538     3.7538     0.0000
 24 H      0.6120     1.0000     0.3880     0.8454     0.8454    -0.0000
 25 H      0.7351     1.0000     0.2649     0.8999     0.8999     0.0000
 26 H      0.7035     1.0000     0.2965     0.8961     0.8961     0.0000
 27 H      0.7098     1.0000     0.2902     0.9078     0.9078     0.0000
 28 H      0.7007     1.0000     0.2993     0.9002     0.9002    -0.0000
 29 H      0.7085     1.0000     0.2915     0.9048     0.9048     0.0000
 30 O      8.5180     8.0000    -0.5180     2.0565     2.0565    -0.0000
 31 O      8.5607     8.0000    -0.5607     2.0678     2.0678    -0.0000
 32 C      5.3567     6.0000     0.6433     3.8565     3.8565    -0.0000
 33 C      6.7458     6.0000    -0.7458     3.6687     3.6687    -0.0000
 34 H      0.7286     1.0000     0.2714     0.8944     0.8944    -0.0000
 35 H      0.7255     1.0000     0.2745     0.8920     0.8920    -0.0000
 36 H      0.7421     1.0000     0.2579     0.8964     0.8964    -0.0000
 37 H      0.7089     1.0000     0.2911     0.9084     0.9084    -0.0000
 38 H      0.7155     1.0000     0.2845     0.9099     0.9099    -0.0000

  Mayer bond orders larger than 0.100000
B(  0-Ir,  1-C ) :   0.5065 B(  0-Ir,  2-C ) :   0.4630 B(  0-Ir,  3-C ) :   0.5051 
B(  0-Ir,  4-C ) :   0.4085 B(  0-Ir,  5-C ) :   0.4503 B(  0-Ir,  6-N ) :   0.4903 
B(  0-Ir, 20-C ) :   0.1127 B(  0-Ir, 30-O ) :   0.1323 B(  0-Ir, 31-O ) :   0.6151 
B(  1-C ,  2-C ) :   1.1382 B(  1-C ,  4-C ) :   1.1695 B(  1-C , 27-H ) :   0.9168 
B(  2-C ,  5-C ) :   1.1924 B(  2-C , 28-H ) :   0.9075 B(  3-C ,  4-C ) :   1.1824 
B(  3-C ,  5-C ) :   1.1271 B(  3-C , 37-H ) :   0.9142 B(  4-C , 38-H ) :   0.9171 
B(  5-C , 29-H ) :   0.9130 B(  6-N ,  7-C ) :   0.8687 B(  6-N , 17-C ) :   1.6271 
B(  7-C ,  8-C ) :   0.9813 B(  7-C , 12-C ) :   0.9881 B(  7-C , 13-H ) :   0.8933 
B(  8-C ,  9-H ) :   0.9069 B(  8-C , 10-H ) :   0.9191 B(  8-C , 11-H ) :   0.8979 
B( 12-C , 14-H ) :   0.9057 B( 12-C , 15-H ) :   0.9123 B( 12-C , 16-H ) :   0.9151 
B( 17-C , 18-C ) :   1.1169 B( 17-C , 19-H ) :   0.8808 B( 18-C , 20-C ) :   1.3253 
B( 18-C , 22-S ) :   1.2078 B( 20-C , 21-C ) :   1.2889 B( 20-C , 24-H ) :   0.7209 
B( 21-C , 23-C ) :   1.5168 B( 21-C , 25-H ) :   0.9026 B( 22-S , 23-C ) :   1.2304 
B( 23-C , 26-H ) :   0.8909 B( 30-O , 32-C ) :   1.6702 B( 31-O , 32-C ) :   1.2165 
B( 32-C , 33-C ) :   0.9553 B( 33-C , 34-H ) :   0.8996 B( 33-C , 35-H ) :   0.8948 
B( 33-C , 36-H ) :   0.9051 


------------------
HIRSHFELD ANALYSIS
------------------

Total integrated alpha density =     82.000111676
Total integrated beta density  =     82.000111676

  ATOM     CHARGE      SPIN    
   0 Ir   0.239958    0.000000
   1 C    0.031544    0.000000
   2 C    0.030600    0.000000
   3 C    0.021309    0.000000
   4 C   -0.016642    0.000000
   5 C   -0.011726    0.000000
   6 N   -0.083383    0.000000
   7 C    0.057975    0.000000
   8 C   -0.074429    0.000000
   9 H    0.047258    0.000000
  10 H    0.036482    0.000000
  11 H    0.036093    0.000000
  12 C   -0.072576    0.000000
  13 H    0.038838    0.000000
  14 H    0.052284    0.000000
  15 H    0.038622    0.000000
  16 H    0.036126    0.000000
  17 C    0.089260    0.000000
  18 C   -0.016288    0.000000
  19 H    0.065305    0.000000
  20 C   -0.064808    0.000000
  21 C   -0.039042    0.000000
  22 S    0.131801    0.000000
  23 C   -0.024536    0.000000
  24 H    0.081980    0.000000
  25 H    0.064118    0.000000
  26 H    0.079540    0.000000
  27 H    0.092445    0.000000
  28 H    0.097345    0.000000
  29 H    0.086776    0.000000
  30 O   -0.307980    0.000000
  31 O   -0.270146    0.000000
  32 C    0.240890    0.000000
  33 C   -0.061325    0.000000
  34 H    0.060476    0.000000
  35 H    0.064519    0.000000
  36 H    0.049107    0.000000
  37 H    0.088637    0.000000
  38 H    0.083371    0.000000

  TOTAL   0.999777    0.000000

-------
TIMINGS
-------

Total SCF time: 0 days 0 hours 21 min 34 sec 

Total time                  ....    1294.448 sec
Sum of individual times     ....    1292.713 sec  ( 99.9%)

Fock matrix formation       ....    1281.943 sec  ( 99.0%)
  Split-RI-J                ....     193.231 sec  ( 15.1% of F)
  Chain of spheres X        ....     995.448 sec  ( 77.7% of F)
  XC integration            ....      93.023 sec  (  7.3% of F)
    Basis function eval.    ....      27.573 sec  ( 29.6% of XC)
    Density eval.           ....      26.409 sec  ( 28.4% of XC)
    XC-Functional eval.     ....       3.522 sec  (  3.8% of XC)
    XC-Potential eval.      ....      29.729 sec  ( 32.0% of XC)
Diagonalization             ....       0.619 sec  (  0.0%)
Density matrix formation    ....       0.118 sec  (  0.0%)
Population analysis         ....       1.568 sec  (  0.1%)
Initial guess               ....       0.034 sec  (  0.0%)
Orbital Transformation      ....       0.573 sec  (  0.0%)
Orbital Orthonormalization  ....       0.000 sec  (  0.0%)
DIIS solution               ....       0.209 sec  (  0.0%)
Grid generation             ....       7.648 sec  (  0.6%)

Maximum memory used throughout the entire SCF-calculation: 169.6 MB


-------------------------------------------------------------------------------
                          DFT DISPERSION CORRECTION                            
                                                                               
                              DFTD3 V3.1  Rev 1                                
                          USING Becke-Johnson damping                          
-------------------------------------------------------------------------------
The PBEh-3c composite method is recognized
Using three-body term ABC
Active option DFTDOPT                   ...         4   

molecular C6(AA) [au] = 19785.693349 


            DFT-D V3
 parameters
 s6 scaling factor         :     1.0000 
 a1 scaling factor         :     0.4860 
 s8 scaling factor         :     0.0000 
 a2 scaling factor         :     4.5000 
 Damping factor alpha9(ATM):    16.0000 
 ad hoc parameters k1-k3   :    16.0000     1.3333    -4.0000 

 Edisp/kcal,au: -18.362956646951  -0.029263230990 
 E6   /kcal   : -18.662222041 
 E8   /kcal   :  -0.000000000 
 E6(ABC)      :   0.299265394 
 % E8         :   0.000000000 
 % E6(ABC)    :  -1.629723357 

-------------------------   ----------------
Dispersion correction           -0.029263231
-------------------------   ----------------

 ** NOTE ** -> element ir will be treated as co
NOTIFICATION: Different basis set in ORCA and otool_gcp:
ORCA: 358  gCP: 357 
If you are NOT using ECPs, check your basis set inputs!
------------------   -----------------
gCP correction             0.072935418
------------------   -----------------

-------------------------   --------------------
FINAL SINGLE POINT ENERGY     -1288.332842853956
-------------------------   --------------------

------------------------------------------------------------------------------
                         ORCA SCF GRADIENT CALCULATION
------------------------------------------------------------------------------

 ... reading COSX grid (gridx3)
Gradient of the Kohn-Sham DFT energy:
Kohn-Sham wavefunction type      ... RKS
Hartree-Fock exchange scaling    ...    0.420
Number of operators              ...    1
Number of atoms                  ...   39
Basis set dimensions             ...  358
Integral neglect threshold       ... 2.5e-11
Integral primitive cutoff        ... 2.5e-12
SHARK Integral package           ... ON

Nuc. rep. gradient       (SHARK) ... done (  0.0 sec)
HCore & Overlap gradient (SHARK) ... done (  2.1 sec)
ECP gradient             (SHARK) ... done (  4.2 sec)
RI-J gradient            (SHARK) ... done (  9.8 sec)
COSX-gradient                    ... done ( 88.5 sec)
Exchange-correlation gradient    ... done
Dispersion correction            ... done
gCP correction                   ... done

------------------
CARTESIAN GRADIENT
------------------

   1   Ir  :    0.003914549    0.008103739   -0.011332634
   2   C   :   -0.003621638    0.000421839    0.005941720
   3   C   :   -0.007034673   -0.002383026   -0.006488071
   4   C   :   -0.010434298    0.010155334   -0.003142575
   5   C   :   -0.001814761    0.002268905   -0.008224468
   6   C   :    0.008438332    0.003943959    0.002433323
   7   N   :    0.005079189    0.001422747    0.002769203
   8   C   :   -0.006362823   -0.002150527    0.008292568
   9   C   :    0.003513435    0.001608975    0.000608470
  10   H   :   -0.000250832    0.000979397    0.003741073
  11   H   :   -0.000043991   -0.002066669    0.000451158
  12   H   :   -0.008151772   -0.004586629   -0.004326309
  13   C   :    0.005321810   -0.003125242   -0.007481076
  14   H   :   -0.000530901    0.004172928   -0.005246477
  15   H   :   -0.004999960   -0.000147873    0.001896631
  16   H   :   -0.000906863   -0.000827619    0.002090745
  17   H   :   -0.002270769    0.005520797    0.003326442
  18   C   :   -0.008348769    0.003039061   -0.000643990
  19   C   :   -0.027009427   -0.002837466   -0.027092745
  20   H   :    0.008710919   -0.003698840    0.005183819
  21   C   :    0.009345781   -0.046974595    0.035046473
  22   C   :   -0.002988943   -0.004200855   -0.010266509
  23   S   :   -0.001381889    0.008363880   -0.010880670
  24   C   :    0.005765761    0.007467882   -0.004907643
  25   H   :    0.027633516    0.050403372    0.008548719
  26   H   :   -0.000217549    0.001692681    0.002185752
  27   H   :    0.000397120   -0.001505876    0.003470414
  28   H   :    0.012125885   -0.013572768    0.004216920
  29   H   :   -0.000394545   -0.006588131    0.007138538
  30   H   :   -0.009259637   -0.009524145   -0.006269164
  31   O   :    0.059944282   -0.015912274   -0.062659196
  32   O   :   -0.036930235   -0.040238997    0.016238252
  33   C   :   -0.028827005    0.056872309    0.041233322
  34   C   :   -0.005090040    0.006553741    0.001258707
  35   H   :    0.001700020    0.001355969   -0.001433905
  36   H   :    0.003879548    0.000920164    0.001481419
  37   H   :    0.005582643   -0.001444606   -0.003356716
  38   H   :    0.003838635   -0.011275786    0.005884944
  39   H   :    0.002009806   -0.002340951    0.010814623

Difference to translation invariance:
           :    0.0003299094   -0.0001351945    0.0005010847

Difference to rotation invariance:
           :   -0.0043477101    0.0014805329    0.0024583665

Norm of the cartesian gradient     ...    0.1678338595
RMS gradient                       ...    0.0155162458
MAX gradient                       ...    0.0626591963

-------
TIMINGS
-------

Total SCF gradient time            ...      119.346 sec

One electron gradient       ....       6.300 sec  (  5.3%)
RI-J Coulomb gradient       ....       9.817 sec  (  8.2%)
COSX gradient               ....      88.476 sec  ( 74.1%)
XC gradient                 ....      12.537 sec  ( 10.5%)

Maximum memory used throughout the entire SCFGRAD-calculation: 136.3 MB

                            ***************************************
                            *     ORCA property calculations      *
                            ***************************************

                                    ---------------------
                                    Active property flags
                                    ---------------------
   (+) Dipole Moment


------------------------------------------------------------------------------
                       ORCA ELECTRIC PROPERTIES CALCULATION
------------------------------------------------------------------------------

Dipole Moment Calculation                       ... on
Quadrupole Moment Calculation                   ... off
Polarizability Calculation                      ... off
GBWName                                         ... 5_2_orca.gbw
Electron density                                ... 5_2_orca.scfp
The origin for moment calculation is the CENTER OF MASS  = ( 0.749695, -0.574819  0.191171)

-------------
DIPOLE MOMENT
-------------
                                X             Y             Z
Electronic contribution:     26.18997     -70.67888     108.29159
Nuclear contribution   :    -26.62124      69.30709    -108.68019
                        -----------------------------------------
Total Dipole Moment    :     -0.43127      -1.37179      -0.38860
                        -----------------------------------------
Magnitude (a.u.)       :      1.48956
Magnitude (Debye)      :      3.78617



--------------------
Rotational spectrum 
--------------------
 
Rotational constants in cm-1:     0.010637     0.007764     0.007197 
Rotational constants in MHz :   318.886112   232.763673   215.752148 

 Dipole components along the rotational axes: 
x,y,z [a.u.] :    -0.088719    -0.415591     1.427661 
x,y,z [Debye]:    -0.225505    -1.056349     3.628826 

 

Timings for individual modules:

Sum of individual times         ...     1415.472 sec (=  23.591 min)
GTO integral calculation        ...        1.612 sec (=   0.027 min)   0.1 %
SCF iterations                  ...     1294.482 sec (=  21.575 min)  91.5 %
SCF Gradient evaluation         ...      119.379 sec (=   1.990 min)   8.4 %
                             ****ORCA TERMINATED NORMALLY****
TOTAL RUN TIME: 0 days 0 hours 23 minutes 35 seconds 881 msec
