
                                 *****************
                                 * O   R   C   A *
                                 *****************

                                            #,                                       
                                            ###                                      
                                            ####                                     
                                            #####                                    
                                            ######                                   
                                           ########,                                 
                                     ,,################,,,,,                         
                               ,,#################################,,                 
                          ,,##########################################,,             
                       ,#########################################, ''#####,          
                    ,#############################################,,   '####,        
                  ,##################################################,,,,####,       
                ,###########''''           ''''###############################       
              ,#####''   ,,,,##########,,,,          '''####'''          '####       
            ,##' ,,,,###########################,,,                        '##       
           ' ,,###''''                  '''############,,,                           
         ,,##''                                '''############,,,,        ,,,,,,###''
      ,#''                                            '''#######################'''  
     '                                                          ''''####''''         
             ,#######,   #######,   ,#######,      ##                                
            ,#'     '#,  ##    ##  ,#'     '#,    #''#        ######   ,####,        
            ##       ##  ##   ,#'  ##            #'  '#       #        #'  '#        
            ##       ##  #######   ##           ,######,      #####,   #    #        
            '#,     ,#'  ##    ##  '#,     ,#' ,#      #,         ##   #,  ,#        
             '#######'   ##     ##  '#######'  #'      '#     #####' # '####'        



                  #######################################################
                  #                        -***-                        #
                  #          Department of theory and spectroscopy      #
                  #    Directorship and core code : Frank Neese         #
                  #        Max Planck Institute fuer Kohlenforschung    #
                  #                Kaiser Wilhelm Platz 1               #
                  #                 D-45470 Muelheim/Ruhr               #
                  #                      Germany                        #
                  #                                                     #
                  #                  All rights reserved                #
                  #                        -***-                        #
                  #######################################################


                         Program Version 5.0.3 -  RELEASE  -


 With contributions from (in alphabetic order):
   Daniel Aravena         : Magnetic Suceptibility
   Michael Atanasov       : Ab Initio Ligand Field Theory (pilot matlab implementation)
   Alexander A. Auer      : GIAO ZORA, VPT2 properties, NMR spectrum
   Ute Becker             : Parallelization
   Giovanni Bistoni       : ED, misc. LED, open-shell LED, HFLD
   Martin Brehm           : Molecular dynamics
   Dmytro Bykov           : SCF Hessian
   Vijay G. Chilkuri      : MRCI spin determinant printing, contributions to CSF-ICE
   Dipayan Datta          : RHF DLPNO-CCSD density
   Achintya Kumar Dutta   : EOM-CC, STEOM-CC
   Dmitry Ganyushin       : Spin-Orbit,Spin-Spin,Magnetic field MRCI
   Miquel Garcia          : C-PCM and meta-GGA Hessian, CC/C-PCM, Gaussian charge scheme
   Yang Guo               : DLPNO-NEVPT2, F12-NEVPT2, CIM, IAO-localization
   Andreas Hansen         : Spin unrestricted coupled pair/coupled cluster methods
   Benjamin Helmich-Paris : MC-RPA, TRAH-SCF, COSX integrals
   Lee Huntington         : MR-EOM, pCC
   Robert Izsak           : Overlap fitted RIJCOSX, COSX-SCS-MP3, EOM
   Marcus Kettner         : VPT2
   Christian Kollmar      : KDIIS, OOCD, Brueckner-CCSD(T), CCSD density, CASPT2, CASPT2-K
   Simone Kossmann        : Meta GGA functionals, TD-DFT gradient, OOMP2, MP2 Hessian
   Martin Krupicka        : Initial AUTO-CI
   Lucas Lang             : DCDCAS
   Marvin Lechner         : AUTO-CI (C++ implementation), FIC-MRCC
   Dagmar Lenk            : GEPOL surface, SMD
   Dimitrios Liakos       : Extrapolation schemes; Compound Job, initial MDCI parallelization
   Dimitrios Manganas     : Further ROCIS development; embedding schemes
   Dimitrios Pantazis     : SARC Basis sets
   Anastasios Papadopoulos: AUTO-CI, single reference methods and gradients
   Taras Petrenko         : DFT Hessian,TD-DFT gradient, ASA, ECA, R-Raman, ABS, FL, XAS/XES, NRVS
   Peter Pinski           : DLPNO-MP2, DLPNO-MP2 Gradient
   Christoph Reimann      : Effective Core Potentials
   Marius Retegan         : Local ZFS, SOC
   Christoph Riplinger    : Optimizer, TS searches, QM/MM, DLPNO-CCSD(T), (RO)-DLPNO pert. Triples
   Tobias Risthaus        : Range-separated hybrids, TD-DFT gradient, RPA, STAB
   Michael Roemelt        : Original ROCIS implementation
   Masaaki Saitow         : Open-shell DLPNO-CCSD energy and density
   Barbara Sandhoefer     : DKH picture change effects
   Avijit Sen             : IP-ROCIS
   Kantharuban Sivalingam : CASSCF convergence, NEVPT2, FIC-MRCI
   Bernardo de Souza      : ESD, SOC TD-DFT
   Georgi Stoychev        : AutoAux, RI-MP2 NMR, DLPNO-MP2 response
   Willem Van den Heuvel  : Paramagnetic NMR
   Boris Wezisla          : Elementary symmetry handling
   Frank Wennmohs         : Technical directorship


 We gratefully acknowledge several colleagues who have allowed us to
 interface, adapt or use parts of their codes:
   Stefan Grimme, W. Hujo, H. Kruse, P. Pracht,  : VdW corrections, initial TS optimization,
                  C. Bannwarth, S. Ehlert          DFT functionals, gCP, sTDA/sTD-DF
   Ed Valeev, F. Pavosevic, A. Kumar             : LibInt (2-el integral package), F12 methods
   Garnet Chan, S. Sharma, J. Yang, R. Olivares  : DMRG
   Ulf Ekstrom                                   : XCFun DFT Library
   Mihaly Kallay                                 : mrcc  (arbitrary order and MRCC methods)
   Jiri Pittner, Ondrej Demel                    : Mk-CCSD
   Frank Weinhold                                : gennbo (NPA and NBO analysis)
   Christopher J. Cramer and Donald G. Truhlar   : smd solvation model
   Lars Goerigk                                  : TD-DFT with DH, B97 family of functionals
   V. Asgeirsson, H. Jonsson                     : NEB implementation
   FAccTs GmbH                                   : IRC, NEB, NEB-TS, DLPNO-Multilevel, CI-OPT
                                                   MM, QMMM, 2- and 3-layer-ONIOM, Crystal-QMMM,
                                                   LR-CPCM, SF, NACMEs, symmetry and pop. for TD-DFT,
                                                   nearIR, NL-DFT gradient (VV10), updates on ESD,
                                                   ML-optimized integration grids
   S Lehtola, MJT Oliveira, MAL Marques          : LibXC Library
   Liviu Ungur et al                             : ANISO software


 Your calculation uses the libint2 library for the computation of 2-el integrals
 For citations please refer to: http://libint.valeyev.net

 Your ORCA version has been built with support for libXC version: 5.1.0
 For citations please refer to: https://tddft.org/programs/libxc/

 This ORCA versions uses:
   CBLAS   interface :  Fast vector & matrix operations
   LAPACKE interface :  Fast linear algebra routines
   SCALAPACK package :  Parallel linear algebra routines
   Shared memory     :  Shared parallel matrices
   BLAS/LAPACK       :  OpenBLAS 0.3.15  USE64BITINT DYNAMIC_ARCH NO_AFFINITY SkylakeX SINGLE_THREADED
        Core in use  :  SkylakeX
   Copyright (c) 2011-2014, The OpenBLAS Project


Your calculation utilizes the geometrical counterpoise correction gCP
Please cite in your paper:
H.Kruse, S. Grimme J.Chem.Phys., 136, (2012), 154101 
   

Your calculation utilizes the atom-pairwise dispersion correction
with the Becke-Johnson damping scheme (D3BJ)
Cite in your paper:
S.Grimme, S.Ehrlich, L.Goerigk, J Comput Chem, (2011), 32, 1456–1465 
S.Grimme, J.Antony, S.Ehrlich and H.Krieg, J.Chem.Phys., 132, (2010), 154104 
   

Your calculation employs the composite approach PBEh-3c.
Please cite in your paper:
S. Grimme, J. G. Brandenburg, C. Bannwarth, A. Hansen J.Chem.Phys., 143, (2015), 054107 
   

================================================================================

cite the ECPs for Lu [Def2-ECP] as follows:
Ce-Yb(ecp-28): M. Dolg, H. Stoll, H.Preuss, J. Chem. Phys., 1989, 90, 1730-1734.
Y-Cd(ecp-28), Hf-Hg(ecp-46): D. Andrae,U. Haeussermann, M. Dolg, H. Stoll, H. Preuss, Theor. Chim. Acta, 1990, 77, 123-141.
In-Sb(ecp-28), Tl-Bi(ecp-46): B. Metz, H. Stoll, M. Dolg, J. Chem. Phys., 2000, 113, 2563-2569.
Te-Xe(ecp-28), Po-Rn(ecp-46): K. A. Peterson, D. Figgen, E. Goll, H. Stoll, M. Dolg, J. Chem. Phys., 2003, 119, 11113-11123.
Rb(ecp-28), Cs(ecp-46): T. Leininger, A. Nicklass, W. Kuechle, H. Stoll, M. Dolg, A. Bergner, Chem. Phys. Lett., 1996, 255, 274-280.
Sr(ecp-28), Ba(ecp-46): M. Kaupp, P. V. Schleyer, H. Stoll and H. Preuss, J. Chem. Phys., 1991, 94, 1360-1366.
La(ecp-46): M. Dolg, H. Stoll, A. Savin, H. Preuss, Theor. Chim. Acta, 1989, 75, 173-194.
Lu(ecp-28): X. Cao, M. Dolg, J. Chem. Phys., 2001, 115, 7348-7355.

ECP parameters for Lu [Def2-ECP] have been obtained from:
TURBOMOLE (7.0.2)

----- Orbital basis set information -----
Your calculation utilizes the basis: def2-mSVP

----- AuxJ basis set information -----
Your calculation utilizes the auxiliary basis: def2/J
   F. Weigend, Phys. Chem. Chem. Phys. 8, 1057 (2006).

================================================================================
                                        WARNINGS
                       Please study these warnings very carefully!
================================================================================


WARNING: No Hueckel Guess possible with ECP basis!
  ===> : Switching to HCORE guess!

INFO   : the flag for use of the SHARK integral package has been found!

================================================================================
                                       INPUT FILE
================================================================================
NAME = 1_3_orca.inp
|  1> ! EnGrad PBEh-3c
|  2> %output 
|  3> xyzfile=True 
|  4> end 
|  5> %scf 
|  6> maxiter 250 
|  7> end
|  8> %output
|  9> Print[P_Hirshfeld] = 1
| 10> end
| 11> % maxcore
| 12> 4000
| 13> *xyz 0 1
| 14> Lu   0.06959296  -0.34291278   0.26593227 
| 15> C    0.53370761   0.53541984   2.67002598 
| 16> C    1.66336017  -0.23022378   2.29340470 
| 17> C    2.36029698   0.47833478   1.28344473 
| 18> C    1.63134014   1.66050550   1.00764270 
| 19> C    0.50503495   1.69710585   1.87252038 
| 20> H    1.89290620   2.41871437   0.28787522 
| 21> H   -0.18094804   2.50960797   1.97289142 
| 22> H   -0.16394783   0.29174955   3.44513825 
| 23> H    1.95078561  -1.16879542   2.72378588 
| 24> H    3.27401220   0.18265888   0.81762118 
| 25> C    0.69923536  -0.15004268  -2.30702408 
| 26> C   -0.49436903  -0.92139260  -2.24571105 
| 27> C    1.17686590  -2.13493737  -1.27378544 
| 28> C    1.73739065  -0.91170068  -1.72521086 
| 29> H    0.80024360   0.82179977  -2.76188885 
| 30> C   -0.19494072  -2.13394702  -1.61032151 
| 31> H   -1.43301222  -0.67049651  -2.69992859 
| 32> H    2.76598565  -0.61660060  -1.64681179 
| 33> H    1.70599807  -2.93573155  -0.79624719 
| 34> H   -0.89832225  -2.92530157  -1.43105191 
| 35> C   -2.00973790  -1.37005659   1.12925428 
| 36> H   -2.35645848  -1.03350269   2.13530977 
| 37> H   -2.07117741  -2.47718994   1.20215051 
| 38> H   -2.88293612  -1.15098559   0.46578687 
| 39> C   -2.03072797   2.03625392  -0.93917363 
| 40> H   -2.15003110   1.19532587  -0.19850022 
| 41> H   -0.97126504   2.61501252  -1.24497601 
| 42> H   -2.59268541   2.94460085  -0.68323038 
| 43> H   -2.34035594   1.78977000  -1.98111181 
| 44> *
| 45> 
| 46>                          ****END OF INPUT****
================================================================================

                     *******************************
                     * Energy+Gradient Calculation *
                     *******************************

---------------------------------
CARTESIAN COORDINATES (ANGSTROEM)
---------------------------------
  Lu     0.069593   -0.342913    0.265932
  C      0.533708    0.535420    2.670026
  C      1.663360   -0.230224    2.293405
  C      2.360297    0.478335    1.283445
  C      1.631340    1.660505    1.007643
  C      0.505035    1.697106    1.872520
  H      1.892906    2.418714    0.287875
  H     -0.180948    2.509608    1.972891
  H     -0.163948    0.291750    3.445138
  H      1.950786   -1.168795    2.723786
  H      3.274012    0.182659    0.817621
  C      0.699235   -0.150043   -2.307024
  C     -0.494369   -0.921393   -2.245711
  C      1.176866   -2.134937   -1.273785
  C      1.737391   -0.911701   -1.725211
  H      0.800244    0.821800   -2.761889
  C     -0.194941   -2.133947   -1.610322
  H     -1.433012   -0.670497   -2.699929
  H      2.765986   -0.616601   -1.646812
  H      1.705998   -2.935732   -0.796247
  H     -0.898322   -2.925302   -1.431052
  C     -2.009738   -1.370057    1.129254
  H     -2.356458   -1.033503    2.135310
  H     -2.071177   -2.477190    1.202151
  H     -2.882936   -1.150986    0.465787
  C     -2.030728    2.036254   -0.939174
  H     -2.150031    1.195326   -0.198500
  H     -0.971265    2.615013   -1.244976
  H     -2.592685    2.944601   -0.683230
  H     -2.340356    1.789770   -1.981112

----------------------------
CARTESIAN COORDINATES (A.U.)
----------------------------
  NO LB      ZA    FRAG     MASS         X           Y           Z
   0 Lu   43.0000*   0   174.967    0.131512   -0.648011    0.502539
   1 C     6.0000    0    12.011    1.008561    1.011797    5.045618
   2 C     6.0000    0    12.011    3.143295   -0.435060    4.333907
   3 C     6.0000    0    12.011    4.460315    0.903922    2.425359
   4 C     6.0000    0    12.011    3.082786    3.137901    1.904169
   5 C     6.0000    0    12.011    0.954378    3.207065    3.538551
   6 H     1.0000    0     1.008    3.577074    4.570708    0.544005
   7 H     1.0000    0     1.008   -0.341942    4.742472    3.728224
   8 H     1.0000    0     1.008   -0.309816    0.551327    6.510368
   9 H     1.0000    0     1.008    3.686451   -2.208703    5.147209
  10 H     1.0000    0     1.008    6.186986    0.345175    1.545080
  11 C     6.0000    0    12.011    1.321363   -0.283540   -4.359644
  12 C     6.0000    0    12.011   -0.934222   -1.741180   -4.243779
  13 C     6.0000    0    12.011    2.223954   -4.034447   -2.407106
  14 C     6.0000    0    12.011    3.283193   -1.722865   -3.260176
  15 H     1.0000    0     1.008    1.512241    1.552977   -5.219214
  16 C     6.0000    0    12.011   -0.368385   -4.032575   -3.043067
  17 H     1.0000    0     1.008   -2.708001   -1.267055   -5.102126
  18 H     1.0000    0     1.008    5.226955   -1.165206   -3.112023
  19 H     1.0000    0     1.008    3.223869   -5.547729   -1.504689
  20 H     1.0000    0     1.008   -1.697583   -5.528019   -2.704296
  21 C     6.0000    0    12.011   -3.797854   -2.589032    2.133981
  22 H     1.0000    0     1.008   -4.453061   -1.953037    4.035151
  23 H     1.0000    0     1.008   -3.913958   -4.681211    2.271735
  24 H     1.0000    0     1.008   -5.447960   -2.175048    0.880210
  25 C     6.0000    0    12.011   -3.837520    3.847962   -1.774781
  26 H     1.0000    0     1.008   -4.062970    2.258839   -0.375111
  27 H     1.0000    0     1.008   -1.835425    4.941657   -2.352664
  28 H     1.0000    0     1.008   -4.899465    5.564489   -1.291118
  29 H     1.0000    0     1.008   -4.422632    3.382175   -3.743759
* core charge reduced due to ECP

--------------------------------
INTERNAL COORDINATES (ANGSTROEM)
--------------------------------
 Lu     0   0   0     0.000000000000     0.00000000     0.00000000
 C      1   0   0     2.601256843559     0.00000000     0.00000000
 C      2   1   0     1.415686634715    73.37453386     0.00000000
 C      3   2   1     1.416966933660   108.15874047    69.89499960
 C      4   3   2     1.415970496006   107.64432747   358.04613922
 C      2   1   3     1.409379895306    75.62416617   114.33716206
 H      5   4   3     1.077665402412   126.33715326   179.98808251
 H      6   2   1     1.068085531802   125.93788486   118.54987947
 H      2   1   3     1.070932936413   118.41511543   237.47127837
 H      3   2   1     1.071801318841   125.50420965   248.21911940
 H      4   3   2     1.067375904185   126.41190471   177.57666950
 C      1   2   3     2.655890209771   145.94761192   288.53669645
 C     12   1   2     1.422473699778    73.73586939   192.39321838
 C     13  12   1     2.282620531630    72.07854416   293.46527685
 C     12   1   2     1.412938759496    74.69997180    78.13870119
 H     12   1   2     1.077767308447   119.77305316   314.81293397
 C     13  12   1     1.401308460630   108.02694117   293.55316650
 H     13  12   1     1.072526670883   126.10410849   119.74516526
 H     15  12   1     1.072957662454   125.88765410   244.92847704
 H     14  13  12     1.072051748874   161.47084601   183.32588100
 H     17  13  12     1.073836668230   124.98837347   180.73501193
 C      1   2   3     2.474664850989    88.14579735   123.56933323
 H     22   1   2     1.116078553311   116.76559713    14.25334916
 H     22   1   2     1.111230366944   118.87339453   249.86569241
 H     22   1   2     1.118327429058   111.57963116   132.95828177
 C     18  13  12     3.283903171116    97.18288589   295.47581585
 H     26  18  13     1.126938473203    75.91326970   290.04372946
 H     26  18  13     1.245366738247    95.54050061    56.58019135
 H     26  18  13     1.098361168666   154.12135914   173.25303216
 H     26  18  13     1.114566720105    50.73149067   150.18456873

---------------------------
INTERNAL COORDINATES (A.U.)
---------------------------
 Lu     0   0   0     0.000000000000     0.00000000     0.00000000
 C      1   0   0     4.915663038315     0.00000000     0.00000000
 C      2   1   0     2.675260031064    73.37453386     0.00000000
 C      3   2   1     2.677679445439   108.15874047    69.89499960
 C      4   3   2     2.675796451164   107.64432747   358.04613922
 C      2   1   3     2.663342020783    75.62416617   114.33716206
 H      5   4   3     2.036492474561   126.33715326   179.98808251
 H      6   2   1     2.018389142709   125.93788486   118.54987947
 H      2   1   3     2.023769957617   118.41511543   237.47127837
 H      3   2   1     2.025410962585   125.50420965   248.21911940
 H      4   3   2     2.017048140856   126.41190471   177.57666950
 C      1   2   3     5.018905138230   145.94761192   288.53669645
 C     12   1   2     2.688085725285    73.73586939   192.39321838
 C     13  12   1     4.313527672447    72.07854416   293.46527685
 C     12   1   2     2.670067299450    74.69997180    78.13870119
 H     12   1   2     2.036685049058   119.77305316   314.81293397
 C     13  12   1     2.648089219737   108.02694117   293.55316650
 H     13  12   1     2.026781679294   126.10410849   119.74516526
 H     15  12   1     2.027596135330   125.88765410   244.92847704
 H     14  13  12     2.025884206763   161.47084601   183.32588100
 H     17  13  12     2.029257215517   124.98837347   180.73501193
 C      1   2   3     4.676438841610    88.14579735   123.56933323
 H     22   1   2     2.109082809700   116.76559713    14.25334916
 H     22   1   2     2.099921065222   118.87339453   249.86569241
 H     22   1   2     2.113332568973   111.57963116   132.95828177
 C     18  13  12     6.205677643725    97.18288589   295.47581585
 H     26  18  13     2.129605084133    75.91326970   290.04372946
 H     26  18  13     2.353402071581    95.54050061    56.58019135
 H     26  18  13     2.075601804912   154.12135914   173.25303216
 H     26  18  13     2.106225858982    50.73149067   150.18456873

---------------------
BASIS SET INFORMATION
---------------------
There are 3 groups of distinct atoms

 Group   1 Type Lu  : 14s13p9d7f1g contracted to 10s7p4d3f1g pattern {5111111111/5311111/6111/511/1}
 Group   2 Type C   : 8s4p1d contracted to 4s2p1d pattern {5111/31/1}
 Group   3 Type H   : 4s contracted to 2s pattern {31}

Atom   0Lu   basis set group =>   1
Atom   1C    basis set group =>   2
Atom   2C    basis set group =>   2
Atom   3C    basis set group =>   2
Atom   4C    basis set group =>   2
Atom   5C    basis set group =>   2
Atom   6H    basis set group =>   3
Atom   7H    basis set group =>   3
Atom   8H    basis set group =>   3
Atom   9H    basis set group =>   3
Atom  10H    basis set group =>   3
Atom  11C    basis set group =>   2
Atom  12C    basis set group =>   2
Atom  13C    basis set group =>   2
Atom  14C    basis set group =>   2
Atom  15H    basis set group =>   3
Atom  16C    basis set group =>   2
Atom  17H    basis set group =>   3
Atom  18H    basis set group =>   3
Atom  19H    basis set group =>   3
Atom  20H    basis set group =>   3
Atom  21C    basis set group =>   2
Atom  22H    basis set group =>   3
Atom  23H    basis set group =>   3
Atom  24H    basis set group =>   3
Atom  25C    basis set group =>   2
Atom  26H    basis set group =>   3
Atom  27H    basis set group =>   3
Atom  28H    basis set group =>   3
Atom  29H    basis set group =>   3
---------------------------------
AUXILIARY/J BASIS SET INFORMATION
---------------------------------
There are 3 groups of distinct atoms

 Group   1 Type Lu  : 18s7p6d6f6g3h5i contracted to 14s7p6d6f5g2h2i pattern {51111111111111/1111111/111111/111111/21111/21/41}
 Group   2 Type C   : 12s5p4d2f1g contracted to 6s4p3d1f1g pattern {711111/2111/211/2/1}
 Group   3 Type H   : 5s2p1d contracted to 3s1p1d pattern {311/2/1}

Atom   0Lu   basis set group =>   1
Atom   1C    basis set group =>   2
Atom   2C    basis set group =>   2
Atom   3C    basis set group =>   2
Atom   4C    basis set group =>   2
Atom   5C    basis set group =>   2
Atom   6H    basis set group =>   3
Atom   7H    basis set group =>   3
Atom   8H    basis set group =>   3
Atom   9H    basis set group =>   3
Atom  10H    basis set group =>   3
Atom  11C    basis set group =>   2
Atom  12C    basis set group =>   2
Atom  13C    basis set group =>   2
Atom  14C    basis set group =>   2
Atom  15H    basis set group =>   3
Atom  16C    basis set group =>   2
Atom  17H    basis set group =>   3
Atom  18H    basis set group =>   3
Atom  19H    basis set group =>   3
Atom  20H    basis set group =>   3
Atom  21C    basis set group =>   2
Atom  22H    basis set group =>   3
Atom  23H    basis set group =>   3
Atom  24H    basis set group =>   3
Atom  25C    basis set group =>   2
Atom  26H    basis set group =>   3
Atom  27H    basis set group =>   3
Atom  28H    basis set group =>   3
Atom  29H    basis set group =>   3
-------------------------
ECP PARAMETER INFORMATION
-------------------------

 Group 1, Type Lu ECP Def2-ECP (replacing 28 core electrons, lmax=5)

Atom   0Lu   ECP group =>   1

------------------------------------------------------------------------------
                           ORCA GTO INTEGRAL CALCULATION
                           -- RI-GTO INTEGRALS CHOSEN --
------------------------------------------------------------------------------
------------------------------------------------------------------------------
                   ___                                                        
                  /   \      - P O W E R E D   B Y -                         
                 /     \                                                     
                 |  |  |   _    _      __       _____    __    __             
                 |  |  |  | |  | |    /  \     |  _  \  |  |  /  |          
                  \  \/   | |  | |   /    \    | | | |  |  | /  /          
                 / \  \   | |__| |  /  /\  \   | |_| |  |  |/  /          
                |  |  |   |  __  | /  /__\  \  |    /   |      \           
                |  |  |   | |  | | |   __   |  |    \   |  |\   \          
                \     /   | |  | | |  |  |  |  | |\  \  |  | \   \       
                 \___/    |_|  |_| |__|  |__|  |_| \__\ |__|  \__/        
                                                                              
                      - O R C A' S   B I G   F R I E N D -                    
                                      &                                       
                       - I N T E G R A L  F E E D E R -                       
                                                                              
 v1 FN, 2020, v2 2021                                                         
------------------------------------------------------------------------------


Reading SHARK input file 1_3_orca.SHARKINP.tmp ... ok
----------------------
SHARK INTEGRAL PACKAGE
----------------------

Number of atoms                             ...     30
Number of basis functions                   ...    295
Number of shells                            ...    143
Maximum angular momentum                    ...      4
Integral batch strategy                     ... SHARK/LIBINT Hybrid
RI-J (if used) integral strategy            ... SPLIT-RIJ (Revised 2003 algorithm where possible)
Printlevel                                  ...      1
Contraction scheme used                     ... SEGMENTED contraction
Coulomb Range Separation                    ... NOT USED
Exchange Range Separation                   ... NOT USED
Finite Nucleus Model                        ... NOT USED
Auxiliary Coulomb fitting basis             ... AVAILABLE
   # of basis functions in Aux-J            ...    975
   # of shells in Aux-J                     ...    307
   Maximum angular momentum in Aux-J        ...      6
Auxiliary J/K fitting basis                 ... NOT available
Auxiliary Correlation fitting basis         ... NOT available
Auxiliary 'external' fitting basis          ... NOT available
Integral threshold                          ...     2.500000e-11
Primitive cut-off                           ...     2.500000e-12
Primitive pair pre-selection threshold      ...     2.500000e-12

Calculating pre-screening integrals         ... done (  0.2 sec) Dimension = 143
Organizing shell pair data                  ... done (  0.1 sec)
Shell pair information
Total number of shell pairs                 ...     10296
Shell pairs after pre-screening             ...      8707
Total number of primitive shell pairs       ...     36301
Primitive shell pairs kept                  ...     20157
          la=0 lb=0:   3314 shell pairs
          la=1 lb=0:   2585 shell pairs
          la=1 lb=1:    496 shell pairs
          la=2 lb=0:   1161 shell pairs
          la=2 lb=1:    488 shell pairs
          la=2 lb=2:    125 shell pairs
          la=3 lb=0:    248 shell pairs
          la=3 lb=1:     93 shell pairs
          la=3 lb=2:     48 shell pairs
          la=3 lb=3:      6 shell pairs
          la=4 lb=0:     92 shell pairs
          la=4 lb=1:     31 shell pairs
          la=4 lb=2:     16 shell pairs
          la=4 lb=3:      3 shell pairs
          la=4 lb=4:      1 shell pairs

Calculating one electron integrals          ... done (  0.1 sec)
Calculating ECP integrals                   ... done (  0.5 sec)
Calculating RI/J V-Matrix + Cholesky decomp.... done (  0.1 sec)
Calculating Nuclear repulsion               ... done (  0.0 sec) ENN=   1365.967180770964 Eh

SHARK setup successfully completed in   1.4 seconds

Maximum memory used throughout the entire GTOINT-calculation: 132.7 MB
-------------------------------------------------------------------------------
                                 ORCA SCF
-------------------------------------------------------------------------------

------------
SCF SETTINGS
------------
Hamiltonian:
 Density Functional     Method          .... DFT(GTOs)
 Exchange Functional    Exchange        .... PBE
   PBE kappa parameter   XKappa         ....  1.024500
   PBE mue parameter    XMuePBE         ....  0.123457
 Correlation Functional Correlation     .... PBE
   PBE beta parameter  CBetaPBE         ....  0.030000
 LDA part of GGA corr.  LDAOpt          .... PW91-LDA
 Gradients option       PostSCFGGA      .... off
 Hybrid DFT is turned on
   Fraction HF Exchange ScalHFX         ....  0.420000
   Scaling of DF-GGA-X  ScalDFX         ....  0.580000
   Scaling of DF-GGA-C  ScalDFC         ....  1.000000
   Scaling of DF-LDA-C  ScalLDAC        ....  1.000000
   Perturbative correction              ....  0.000000
   Density functional embedding theory  .... OFF
 RI-approximation to the Coulomb term is turned on
   Number of AuxJ basis functions       .... 975
   RIJ-ON(X) (HFX calculated with O(N)) .... on
   Number of AuxJ basis functions       .... 975
   RIJ-COSX (HFX calculated with COS-X)).... on


General Settings:
 Integral files         IntName         .... 1_3_orca
 Hartree-Fock type      HFTyp           .... RHF
 Total Charge           Charge          ....    0
 Multiplicity           Mult            ....    1
 Number of Electrons    NEL             ....  132
 Basis Dimension        Dim             ....  295
 Nuclear Repulsion      ENuc            ....   1365.9671807710 Eh

Convergence Acceleration:
 DIIS                   CNVDIIS         .... on
   Start iteration      DIISMaxIt       ....    12
   Startup error        DIISStart       ....  0.200000
   # of expansion vecs  DIISMaxEq       ....     5
   Bias factor          DIISBfac        ....   1.050
   Max. coefficient     DIISMaxC        ....  10.000
 Trust-Rad. Augm. Hess. CNVTRAH         .... auto
   Auto Start mean grad. ratio tolernc. ....  1.125000
   Auto Start start iteration           ....    20
   Auto Start num. interpolation iter.  ....    10
   Max. Number of Micro iterations      ....    16
   Max. Number of Macro iterations      .... Maxiter - #DIIS iter
   Number of Davidson start vectors     ....     2
   Converg. threshold I  (grad. norm)   ....   1.000e-05
   Converg. threshold II (energy diff.) ....   1.000e-08
   Grad. Scal. Fac. for Micro threshold ....   0.100
   Minimum threshold for Micro iter.    ....   0.010
   NR start threshold (gradient norm)   ....   0.001
   Initial trust radius                 ....   0.400
   Minimum AH scaling param. (alpha)    ....   1.000
   Maximum AH scaling param. (alpha)    .... 1000.000
   Orbital update algorithm             .... Taylor
   White noise on init. David. guess    .... on
   Maximum white noise                  ....   0.010
   Quad. conv. algorithm                .... NR
   COSX micro iterations for RIJONX calc.... off
 SOSCF                  CNVSOSCF        .... off
 Level Shifting         CNVShift        .... on
   Level shift para.    LevelShift      ....    0.2500
   Turn off err/grad.   ShiftErr        ....    0.0010
 Zerner damping         CNVZerner       .... off
 Static damping         CNVDamp         .... on
   Fraction old density DampFac         ....    0.7000
   Max. Damping (<1)    DampMax         ....    0.9800
   Min. Damping (>=0)   DampMin         ....    0.0000
   Turn off err/grad.   DampErr         ....    0.1000
 Fernandez-Rico         CNVRico         .... off

SCF Procedure:
 Maximum # iterations   MaxIter         ....   250
 SCF integral mode      SCFMode         .... Direct
   Integral package                     .... SHARK and LIBINT hybrid scheme
 Reset frequency        DirectResetFreq ....    20
 Integral Threshold     Thresh          ....  2.500e-11 Eh
 Primitive CutOff       TCut            ....  2.500e-12 Eh

Convergence Tolerance:
 Convergence Check Mode ConvCheckMode   .... Total+1el-Energy
 Convergence forced     ConvForced      .... 0
 Energy Change          TolE            ....  1.000e-08 Eh
 1-El. energy change                    ....  1.000e-05 Eh
 DIIS Error             TolErr          ....  5.000e-07


Diagonalization of the overlap matrix:
Smallest eigenvalue                        ... 1.307e-03
Time for diagonalization                   ...    0.025 sec
Threshold for overlap eigenvalues          ... 1.000e-08
Number of eigenvalues below threshold      ... 0
Time for construction of square roots      ...    0.008 sec
Total time needed                          ...    0.034 sec

--------------------
INITIAL GUESS: HCORE
--------------------
                      -----------------
                      INTIAL GUESS DONE 
                      -----------------
-------------------
DFT GRID GENERATION
-------------------

General Integration Accuracy     IntAcc      ... 4.159
Radial Grid Type                 RadialGrid  ... OptM3 with GC (2021)
Angular Grid (max. ang.)         AngularGrid ... 3 (Lebedev-194)
Angular grid pruning method      GridPruning ... 4 (adaptive)
Weight generation scheme         WeightScheme... Becke
Basis function cutoff            BFCut       ... 1.0000e-11
Integration weight cutoff        WCut        ... 1.0000e-14
Angular grids for H and He will be reduced by one unit
Partially contracted basis set               ... off
Rotationally invariant grid construction     ... off

Total number of grid points                  ...    67332
Total number of batches                      ...     1071
Average number of points per batch           ...       62
Average number of grid points per atom       ...     2244
Time for grid setup =    0.960 sec

--------------------
COSX GRID GENERATION
--------------------

GRIDX 1
-------
General Integration Accuracy     IntAcc      ... 3.816
Radial Grid Type                 RadialGrid  ... OptM3 with GC (2021)
Angular Grid (max. ang.)         AngularGrid ... 1 (Lebedev-50)
Angular grid pruning method      GridPruning ... 4 (adaptive)
Weight generation scheme         WeightScheme... Becke
Basis function cutoff            BFCut       ... 1.0000e-11
Integration weight cutoff        WCut        ... 1.0000e-14
Angular grids for H and He will be reduced by one unit
Partially contracted basis set               ... on
Rotationally invariant grid construction     ... off

Total number of grid points                  ...    17108
Total number of batches                      ...      282
Average number of points per batch           ...       60
Average number of grid points per atom       ...      570
UseSFitting                                  ... on

GRIDX 2
-------
General Integration Accuracy     IntAcc      ... 4.020
Radial Grid Type                 RadialGrid  ... OptM3 with GC (2021)
Angular Grid (max. ang.)         AngularGrid ... 2 (Lebedev-110)
Angular grid pruning method      GridPruning ... 4 (adaptive)
Weight generation scheme         WeightScheme... Becke
Basis function cutoff            BFCut       ... 1.0000e-11
Integration weight cutoff        WCut        ... 1.0000e-14
Angular grids for H and He will be reduced by one unit
Partially contracted basis set               ... on
Rotationally invariant grid construction     ... off

Total number of grid points                  ...    36814
Total number of batches                      ...      592
Average number of points per batch           ...       62
Average number of grid points per atom       ...     1227
UseSFitting                                  ... on

GRIDX 3
-------
General Integration Accuracy     IntAcc      ... 4.338
Radial Grid Type                 RadialGrid  ... OptM3 with GC (2021)
Angular Grid (max. ang.)         AngularGrid ... 3 (Lebedev-194)
Angular grid pruning method      GridPruning ... 4 (adaptive)
Weight generation scheme         WeightScheme... Becke
Basis function cutoff            BFCut       ... 1.0000e-11
Integration weight cutoff        WCut        ... 1.0000e-14
Angular grids for H and He will be reduced by one unit
Partially contracted basis set               ... on
Rotationally invariant grid construction     ... off

Total number of grid points                  ...    78782
Total number of batches                      ...     1246
Average number of points per batch           ...       63
Average number of grid points per atom       ...     2626
UseSFitting                                  ... on

Time for X-Grid setup             =    2.589 sec

--------------
SCF ITERATIONS
--------------
ITER       Energy         Delta-E        Max-DP      RMS-DP      [F,P]     Damp
               ***  Starting incremental Fock matrix formation  ***
  0   -471.6963813407   0.00000000000042.79491060  0.28529722  3.2643588 0.7000
  1  -1256.1860955196-784.48971417887629.79240131  0.19613585  1.5902914 0.7000
  2  -1430.4145278433-174.22843232367020.92379992  0.13488379  0.9370486 0.7000
  3  -1518.0035225469 -87.58899470367014.66496282  0.09565508  0.7652768 0.7000
  4  -1574.7386279484 -56.73510540146410.18372161  0.06745214  0.6848766 0.7000
  5  -1613.2519123794 -38.513284431034 7.09285993  0.04742482  0.6847256 0.7000
  6  -1640.0200557736 -26.768143394115 4.95602909  0.03327189  0.5420369 0.7000
  7  -1658.7218899946 -18.701834221023 3.46667316  0.02331989  0.4047897 0.7000
  8  -1671.8148321471 -13.092942152529 2.42494200  0.01634485  0.2992447 0.7000
  9  -1680.9911325498  -9.176300402698 1.69626334  0.01145966  0.2235263 0.7000
                               ***Turning on DIIS***
 10  -1687.4246606668  -6.433528116962 1.18679092  0.00803671  0.1672947 0.7000
 11  -1691.9349119224  -4.510251255656 0.83036759  0.00564904  0.1245738 0.7000
 12  -1695.0960831906  -3.161171268172 1.93962194  0.01321586  0.0878973 0.0000
 13  -1702.4879060070  -7.391822816363 0.00638442  0.00011638  0.0037849 0.0000
 14  -1702.4878734102   0.000032596774 0.00239488  0.00004529  0.0055106 0.0000
 15  -1702.4877322113   0.000141198918 0.00164561  0.00002896  0.0034041 0.0000
 16  -1702.4877528111  -0.000020599786 0.00179399  0.00002828  0.0003456 0.0000
               *** Restarting incremental Fock matrix formation ***
                                   *** Resetting DIIS ***
 17  -1702.3708047942   0.116948016868 0.00952780  0.00008914  0.1031242 0.7000
 18  -1702.3727049214  -0.001900127253 0.02290871  0.00026901  0.0721894 0.0000
 19  -1702.3778453663  -0.005140444816 0.00895628  0.00009594  0.0246318 0.0000

 WARNING: the maximum gradient error descreased on average only by a factor   1.0
          during the last 20 iterations

                      *** Initiating the TRAH-SCF procedure ***


TRAH GRIDX
----------

General Integration Accuracy     IntAcc      ... 3.067
Radial Grid Type                 RadialGrid  ... OptM3 with GC (2021)
Angular Grid (max. ang.)         AngularGrid ... 1 (Lebedev-50)
Angular grid pruning method      GridPruning ... 4 (adaptive)
Weight generation scheme         WeightScheme... Becke
Basis function cutoff            BFCut       ... 1.0000e-11
Integration weight cutoff        WCut        ... 1.0000e-14
Angular grids for H and He will be reduced by one unit
Partially contracted basis set               ... on
Rotationally invariant grid construction     ... off

Total number of grid points                  ...     9123
Total number of batches                      ...      159
Average number of points per batch           ...       57
Average number of grid points per atom       ...      304


TRAH GRID
---------

General Integration Accuracy     IntAcc      ... 3.467
Radial Grid Type                 RadialGrid  ... OptM3 with GC (2021)
Angular Grid (max. ang.)         AngularGrid ... 1 (Lebedev-50)
Angular grid pruning method      GridPruning ... 4 (adaptive)
Weight generation scheme         WeightScheme... Becke
Basis function cutoff            BFCut       ... 1.0000e-11
Integration weight cutoff        WCut        ... 1.0000e-14
Angular grids for H and He will be reduced by one unit
Partially contracted basis set               ... off
Rotationally invariant grid construction     ... off

Total number of grid points                  ...    21884
Total number of batches                      ...      359
Average number of points per batch           ...       60
Average number of grid points per atom       ...      729

 --------------------------------------------------------------------------------------------
   Iter.        energy            ||Error||_2        Shift      TRadius  Mac/Mic        Rej.
 --------------------------------------------------------------------------------------------
    0      -1702.377922777560     1.511101e-01                     0.400 (TRAH MAcro)   No
    0     dE    -1.545065e-04     1.146219e-01    -3.0901e-04      0.002 (TRAH MIcro)
    0     dE    -2.073610e-04     1.380986e-02    -4.1472e-04      0.004 (TRAH MIcro)
    0     dE    -2.102801e-04     3.352987e-03    -4.2055e-04      0.004 (TRAH MIcro)
    1      -1702.378132846237     3.032962e-03                     0.480 (TRAH MAcro)   No
    1     dE    -8.898271e-09     5.833493e-03    -1.7932e-08      0.000 (TRAH MIcro)
    1     dE    -3.424345e-07     1.647429e-03    -6.8487e-07      0.000 (TRAH MIcro)
    1     dE    -4.185351e-07     7.638790e-04    -8.3707e-07      0.000 (TRAH MIcro)
    1     dE    -4.233666e-07     2.859918e-04    -8.4673e-07      0.000 (TRAH MIcro)
    2      -1702.378133255863     3.037073e-04                           (NR   MAcro)
    2     dE    -1.045483e-09     1.545107e-04                           (NR   MIcro)
    2     dE    -1.318544e-09     4.893767e-05                           (NR   MIcro)
    2     dE    -1.377126e-09     2.290570e-05                           (NR   MIcro)
    2     dE    -1.386140e-09     9.045194e-06                           (NR   MIcro)
    2     dE    -1.386557e-09     6.169894e-07                           (NR   MIcro)
    3      -1702.378133256870     2.707470e-06                           (NR   MAcro)

               *****************************************************
               *                     SUCCESS                       *
               *           SCF CONVERGED AFTER  36 CYCLES          *
               *****************************************************

Old exchange energy                            =    -54.645881344 Eh
New exchange energy                            =    -54.645919736 Eh
Exchange energy change after final integration =     -0.000038392 Eh
Total energy after final integration           =  -1702.378171649 Eh
Final COS-X integration done in                =    38.295 sec

----------------
TOTAL SCF ENERGY
----------------

Total Energy       :        -1702.37817165 Eh          -46324.06512 eV

Components:
Nuclear Repulsion  :         1365.96718077 Eh           37169.85667 eV
Electronic Energy  :        -3068.34535242 Eh          -83493.92179 eV
One Electron Energy:        -5599.38160249 Eh         -152366.91959 eV
Two Electron Energy:         2531.03625007 Eh           68872.99780 eV
Max COSX asymmetry :            0.00000810 Eh               0.00022 eV

Virial components:
Potential Energy   :        -2969.20596317 Eh          -80796.20186 eV
Kinetic Energy     :         1266.82779152 Eh           34472.13674 eV
Virial Ratio       :            2.34381183


DFT components:
N(Alpha)           :       66.000594393840 electrons
N(Beta)            :       66.000594393840 electrons
N(Total)           :      132.001188787679 electrons
E(X)               :      -74.399019078036 Eh       
E(C)               :       -6.757548780190 Eh       
E(XC)              :      -81.156567858226 Eh       
DFET-embed. en.    :        0.000000000000 Eh       

---------------
SCF CONVERGENCE
---------------

  Last Energy change         ...   -1.0068e-09  Tolerance :   1.0000e-08
  Last Orbital Gradient      ...    2.7075e-06  Tolerance :   1.0000e-05
  Last Orbital Rotation      ...    2.9223e-05

             **** THE GBW FILE WAS UPDATED (1_3_orca.gbw) ****
             **** DENSITY 1_3_orca.scfp WAS UPDATED ****
             **** ENERGY FILE WAS UPDATED (1_3_orca.en.tmp) ****
             **** THE GBW FILE WAS UPDATED (1_3_orca.gbw) ****
             **** DENSITY 1_3_orca.scfp WAS UPDATED ****
----------------
ORBITAL ENERGIES
----------------

  NO   OCC          E(Eh)            E(eV) 
   0   2.0000     -19.257317      -524.0182 
   1   2.0000     -12.629873      -343.6763 
   2   2.0000     -12.627277      -343.6057 
   3   2.0000     -12.626965      -343.5972 
   4   2.0000     -10.467539      -284.8362 
   5   2.0000     -10.449047      -284.3330 
   6   2.0000     -10.448131      -284.3081 
   7   2.0000     -10.447785      -284.2987 
   8   2.0000     -10.446183      -284.2551 
   9   2.0000     -10.446110      -284.2531 
  10   2.0000     -10.445656      -284.2408 
  11   2.0000     -10.443929      -284.1938 
  12   2.0000     -10.443408      -284.1796 
  13   2.0000     -10.442375      -284.1515 
  14   2.0000     -10.440626      -284.1039 
  15   2.0000     -10.368199      -282.1330 
  16   2.0000      -5.898966      -160.5190 
  17   2.0000      -5.898579      -160.5085 
  18   2.0000      -5.898173      -160.4974 
  19   2.0000      -5.896624      -160.4553 
  20   2.0000      -5.896515      -160.4523 
  21   2.0000      -2.440616       -66.4125 
  22   2.0000      -1.278352       -34.7857 
  23   2.0000      -1.277273       -34.7564 
  24   2.0000      -1.265970       -34.4488 
  25   2.0000      -0.977227       -26.5917 
  26   2.0000      -0.968779       -26.3618 
  27   2.0000      -0.795832       -21.6557 
  28   2.0000      -0.793229       -21.5849 
  29   2.0000      -0.792071       -21.5533 
  30   2.0000      -0.791297       -21.5323 
  31   2.0000      -0.787761       -21.4361 
  32   2.0000      -0.692632       -18.8475 
  33   2.0000      -0.617745       -16.8097 
  34   2.0000      -0.613751       -16.7010 
  35   2.0000      -0.612045       -16.6546 
  36   2.0000      -0.609495       -16.5852 
  37   2.0000      -0.597587       -16.2612 
  38   2.0000      -0.592593       -16.1253 
  39   2.0000      -0.566622       -15.4186 
  40   2.0000      -0.565436       -15.3863 
  41   2.0000      -0.565068       -15.3763 
  42   2.0000      -0.564109       -15.3502 
  43   2.0000      -0.563607       -15.3365 
  44   2.0000      -0.562291       -15.3007 
  45   2.0000      -0.560667       -15.2565 
  46   2.0000      -0.501399       -13.6438 
  47   2.0000      -0.466106       -12.6834 
  48   2.0000      -0.462982       -12.5984 
  49   2.0000      -0.454767       -12.3749 
  50   2.0000      -0.452318       -12.3082 
  51   2.0000      -0.450435       -12.2570 
  52   2.0000      -0.448981       -12.2174 
  53   2.0000      -0.434897       -11.8341 
  54   2.0000      -0.433107       -11.7854 
  55   2.0000      -0.432605       -11.7718 
  56   2.0000      -0.429384       -11.6841 
  57   2.0000      -0.428400       -11.6574 
  58   2.0000      -0.423135       -11.5141 
  59   2.0000      -0.381974       -10.3941 
  60   2.0000      -0.378026       -10.2866 
  61   2.0000      -0.290255        -7.8982 
  62   2.0000      -0.285668        -7.7734 
  63   2.0000      -0.277285        -7.5453 
  64   2.0000      -0.266659        -7.2561 
  65   2.0000      -0.257664        -7.0114 
  66   0.0000      -0.015815        -0.4303 
  67   0.0000       0.004752         0.1293 
  68   0.0000       0.038583         1.0499 
  69   0.0000       0.054037         1.4704 
  70   0.0000       0.055044         1.4978 
  71   0.0000       0.061542         1.6746 
  72   0.0000       0.065575         1.7844 
  73   0.0000       0.071753         1.9525 
  74   0.0000       0.089690         2.4406 
  75   0.0000       0.112130         3.0512 
  76   0.0000       0.115101         3.1321 
  77   0.0000       0.128351         3.4926 
  78   0.0000       0.130184         3.5425 
  79   0.0000       0.141950         3.8627 
  80   0.0000       0.161542         4.3958 
  81   0.0000       0.172942         4.7060 
  82   0.0000       0.176457         4.8016 
  83   0.0000       0.187629         5.1056 
  84   0.0000       0.197438         5.3726 
  85   0.0000       0.203217         5.5298 
  86   0.0000       0.210589         5.7304 
  87   0.0000       0.220958         6.0126 
  88   0.0000       0.233310         6.3487 
  89   0.0000       0.235656         6.4125 
  90   0.0000       0.235974         6.4212 
  91   0.0000       0.244980         6.6662 
  92   0.0000       0.248853         6.7716 
  93   0.0000       0.256098         6.9688 
  94   0.0000       0.260029         7.0757 
  95   0.0000       0.261710         7.1215 
  96   0.0000       0.264138         7.1876 
  97   0.0000       0.269284         7.3276 
  98   0.0000       0.276549         7.5253 
  99   0.0000       0.291200         7.9239 
 100   0.0000       0.315374         8.5818 
 101   0.0000       0.321450         8.7471 
 102   0.0000       0.339089         9.2271 
 103   0.0000       0.351608         9.5677 
 104   0.0000       0.354641         9.6503 
 105   0.0000       0.359252         9.7757 
 106   0.0000       0.362689         9.8693 
 107   0.0000       0.365517         9.9462 
 108   0.0000       0.445691        12.1279 
 109   0.0000       0.464056        12.6276 
 110   0.0000       0.470144        12.7933 
 111   0.0000       0.476812        12.9747 
 112   0.0000       0.511356        13.9147 
 113   0.0000       0.523146        14.2355 
 114   0.0000       0.533581        14.5195 
 115   0.0000       0.543833        14.7984 
 116   0.0000       0.551733        15.0134 
 117   0.0000       0.565833        15.3971 
 118   0.0000       0.572819        15.5872 
 119   0.0000       0.589823        16.0499 
 120   0.0000       0.623660        16.9707 
 121   0.0000       0.628429        17.1004 
 122   0.0000       0.640639        17.4327 
 123   0.0000       0.648392        17.6436 
 124   0.0000       0.654661        17.8142 
 125   0.0000       0.656700        17.8697 
 126   0.0000       0.659297        17.9404 
 127   0.0000       0.679571        18.4921 
 128   0.0000       0.694163        18.8891 
 129   0.0000       0.711254        19.3542 
 130   0.0000       0.717035        19.5115 
 131   0.0000       0.729240        19.8436 
 132   0.0000       0.747635        20.3442 
 133   0.0000       0.756450        20.5840 
 134   0.0000       0.762579        20.7508 
 135   0.0000       0.771162        20.9844 
 136   0.0000       0.786421        21.3996 
 137   0.0000       0.796840        21.6831 
 138   0.0000       0.806587        21.9484 
 139   0.0000       0.827234        22.5102 
 140   0.0000       0.830129        22.5890 
 141   0.0000       0.860457        23.4142 
 142   0.0000       0.875501        23.8236 
 143   0.0000       0.880175        23.9508 
 144   0.0000       0.889806        24.2129 
 145   0.0000       0.897802        24.4304 
 146   0.0000       0.910998        24.7895 
 147   0.0000       0.922145        25.0928 
 148   0.0000       0.939281        25.5591 
 149   0.0000       0.942084        25.6354 
 150   0.0000       0.949733        25.8435 
 151   0.0000       0.954126        25.9631 
 152   0.0000       0.989205        26.9176 
 153   0.0000       1.000576        27.2271 
 154   0.0000       1.025468        27.9044 
 155   0.0000       1.027148        27.9501 
 156   0.0000       1.036833        28.2136 
 157   0.0000       1.039205        28.2782 
 158   0.0000       1.054139        28.6846 
 159   0.0000       1.059525        28.8311 
 160   0.0000       1.066336        29.0165 
 161   0.0000       1.078499        29.3474 
 162   0.0000       1.083437        29.4818 
 163   0.0000       1.089742        29.6534 
 164   0.0000       1.100382        29.9429 
 165   0.0000       1.114671        30.3317 
 166   0.0000       1.117883        30.4191 
 167   0.0000       1.124821        30.6079 
 168   0.0000       1.137387        30.9499 
 169   0.0000       1.152342        31.3568 
 170   0.0000       1.166112        31.7315 
 171   0.0000       1.176427        32.0122 
 172   0.0000       1.184887        32.2424 
 173   0.0000       1.206795        32.8386 
 174   0.0000       1.218595        33.1597 
 175   0.0000       1.238298        33.6958 
 176   0.0000       1.241514        33.7833 
 177   0.0000       1.252747        34.0890 
 178   0.0000       1.344830        36.5947 
 179   0.0000       1.382365        37.6161 
 180   0.0000       1.391011        37.8513 
 181   0.0000       1.402533        38.1649 
 182   0.0000       1.406117        38.2624 
 183   0.0000       1.428760        38.8785 
 184   0.0000       1.437254        39.1097 
 185   0.0000       1.437802        39.1246 
 186   0.0000       1.444980        39.3199 
 187   0.0000       1.452486        39.5241 
 188   0.0000       1.456114        39.6229 
 189   0.0000       1.482373        40.3374 
 190   0.0000       1.499632        40.8071 
 191   0.0000       1.604806        43.6690 
 192   0.0000       1.635745        44.5109 
 193   0.0000       1.642840        44.7039 
 194   0.0000       1.672804        45.5193 
 195   0.0000       1.681669        45.7605 
 196   0.0000       1.696258        46.1575 
 197   0.0000       1.719022        46.7770 
 198   0.0000       1.743513        47.4434 
 199   0.0000       1.772600        48.2349 
 200   0.0000       1.782843        48.5136 
 201   0.0000       1.792842        48.7857 
 202   0.0000       1.823187        49.6114 
 203   0.0000       1.881997        51.2117 
 204   0.0000       1.907283        51.8998 
 205   0.0000       1.947492        52.9940 
 206   0.0000       1.957001        53.2527 
 207   0.0000       2.040425        55.5228 
 208   0.0000       2.048450        55.7412 
 209   0.0000       2.053080        55.8671 
 210   0.0000       2.060820        56.0778 
 211   0.0000       2.082243        56.6607 
 212   0.0000       2.094056        56.9822 
 213   0.0000       2.098258        57.0965 
 214   0.0000       2.109761        57.4095 
 215   0.0000       2.121997        57.7425 
 216   0.0000       2.141328        58.2685 
 217   0.0000       2.250130        61.2292 
 218   0.0000       2.257856        61.4394 
 219   0.0000       2.262654        61.5699 
 220   0.0000       2.267121        61.6915 
 221   0.0000       2.270299        61.7780 
 222   0.0000       2.278419        61.9989 
 223   0.0000       2.298186        62.5368 
 224   0.0000       2.336407        63.5769 
 225   0.0000       2.346836        63.8607 
 226   0.0000       2.352934        64.0266 
 227   0.0000       2.355617        64.0996 
 228   0.0000       2.357990        64.1642 
 229   0.0000       2.369976        64.4903 
 230   0.0000       2.375572        64.6426 
 231   0.0000       2.395289        65.1791 
 232   0.0000       2.404209        65.4218 
 233   0.0000       2.414492        65.7017 
 234   0.0000       2.435263        66.2669 
 235   0.0000       2.572206        69.9933 
 236   0.0000       2.578768        70.1718 
 237   0.0000       2.614015        71.1310 
 238   0.0000       2.621089        71.3235 
 239   0.0000       2.624207        71.4083 
 240   0.0000       2.632385        71.6308 
 241   0.0000       2.667740        72.5929 
 242   0.0000       2.676995        72.8447 
 243   0.0000       2.689318        73.1801 
 244   0.0000       2.692103        73.2558 
 245   0.0000       2.704048        73.5809 
 246   0.0000       2.707283        73.6689 
 247   0.0000       2.711419        73.7815 
 248   0.0000       2.713834        73.8472 
 249   0.0000       2.724016        74.1242 
 250   0.0000       2.760181        75.1083 
 251   0.0000       2.765691        75.2583 
 252   0.0000       2.803353        76.2831 
 253   0.0000       2.832028        77.0634 
 254   0.0000       3.002143        81.6925 
 255   0.0000       3.009694        81.8979 
 256   0.0000       3.058055        83.2139 
 257   0.0000       3.066868        83.4537 
 258   0.0000       3.071197        83.5715 
 259   0.0000       3.078066        83.7584 
 260   0.0000       3.421738        93.1102 
 261   0.0000       3.473543        94.5199 
 262   0.0000       3.496824        95.1534 
 263   0.0000       3.611073        98.2623 
 264   0.0000       3.629395        98.7609 
 265   0.0000       3.840430       104.5034 
 266   0.0000       3.868421       105.2651 
 267   0.0000       3.888666       105.8160 
 268   0.0000       3.923945       106.7760 
 269   0.0000       3.958893       107.7270 
 270   0.0000       3.976184       108.1975 
 271   0.0000       3.991903       108.6252 
 272   0.0000      10.949636       297.9547 
 273   0.0000      13.518497       367.8570 
 274   0.0000      13.569249       369.2380 
 275   0.0000      13.626460       370.7948 
 276   0.0000      13.643315       371.2535 
 277   0.0000      13.664619       371.8332 
 278   0.0000      13.684095       372.3632 
 279   0.0000      13.855977       377.0403 
 280   0.0000      14.010040       381.2326 
 281   0.0000      14.041487       382.0883 
 282   0.0000      14.049004       382.2928 
 283   0.0000      14.116914       384.1408 
 284   0.0000      14.289726       388.8432 
 285   0.0000      14.302439       389.1892 
 286   0.0000      14.309718       389.3872 
 287   0.0000      14.342548       390.2806 
 288   0.0000      85.384253      2323.4236 
 289   0.0000      88.235987      2401.0233 
 290   0.0000      88.357010      2404.3165 
 291   0.0000      88.636591      2411.9243 
 292   0.0000      94.758891      2578.5205 
 293   0.0000     357.427326      9726.0920 
 294   0.0000     780.454541     21237.2478 

                    ********************************
                    * MULLIKEN POPULATION ANALYSIS *
                    ********************************

-----------------------
MULLIKEN ATOMIC CHARGES
-----------------------
   0 Lu:    0.845060
   1 C :   -0.253255
   2 C :   -0.327127
   3 C :   -0.262098
   4 C :   -0.289051
   5 C :   -0.305613
   6 H :    0.235782
   7 H :    0.238685
   8 H :    0.247655
   9 H :    0.246434
  10 H :    0.235520
  11 C :   -0.300363
  12 C :   -0.295829
  13 C :   -0.327211
  14 C :   -0.256838
  15 H :    0.231881
  16 C :   -0.245696
  17 H :    0.233347
  18 H :    0.232184
  19 H :    0.241319
  20 H :    0.249118
  21 C :   -1.047919
  22 H :    0.203888
  23 H :    0.211321
  24 H :    0.197255
  25 C :   -0.928472
  26 H :    0.261869
  27 H :    0.210117
  28 H :    0.263293
  29 H :    0.254744
Sum of atomic charges:    0.0000000

--------------------------------
MULLIKEN REDUCED ORBITAL CHARGES
--------------------------------
  0 Lus       :     4.410924  s :     4.410924
      pz      :     4.174423  p :    12.548620
      px      :     4.202044
      py      :     4.172153
      dz2     :     2.287079  d :    11.155981
      dxz     :     2.287839
      dyz     :     2.206214
      dx2y2   :     2.185480
      dxy     :     2.189369
      f0      :     2.007624  f :    14.037254
      f+1     :     2.006889
      f-1     :     2.005373
      f+2     :     2.007578
      f-2     :     2.003946
      f+3     :     2.002034
      f-3     :     2.003809
      g0      :     0.000305  g :     0.002161
      g+1     :     0.000379
      g-1     :     0.000255
      g+2     :     0.000316
      g-2     :     0.000200
      g+3     :     0.000213
      g-3     :     0.000277
      g+4     :     0.000086
      g-4     :     0.000132
  1 C s       :     3.273255  s :     3.273255
      pz      :     1.026135  p :     2.937594
      px      :     0.993347
      py      :     0.918111
      dz2     :     0.005761  d :     0.042406
      dxz     :     0.009852
      dyz     :     0.008931
      dx2y2   :     0.009840
      dxy     :     0.008022
  2 C s       :     3.291752  s :     3.291752
      pz      :     0.998748  p :     2.993209
      px      :     0.953287
      py      :     1.041174
      dz2     :     0.008587  d :     0.042166
      dxz     :     0.006335
      dyz     :     0.007995
      dx2y2   :     0.010153
      dxy     :     0.009097
  3 C s       :     3.271959  s :     3.271959
      pz      :     0.997416  p :     2.947889
      px      :     1.017433
      py      :     0.933040
      dz2     :     0.007372  d :     0.042250
      dxz     :     0.009086
      dyz     :     0.006695
      dx2y2   :     0.008816
      dxy     :     0.010281
  4 C s       :     3.273887  s :     3.273887
      pz      :     1.031666  p :     2.973533
      px      :     0.941594
      py      :     1.000273
      dz2     :     0.005664  d :     0.041631
      dxz     :     0.007446
      dyz     :     0.010274
      dx2y2   :     0.010442
      dxy     :     0.007804
  5 C s       :     3.279035  s :     3.279035
      pz      :     0.964723  p :     2.984602
      px      :     1.007893
      py      :     1.011986
      dz2     :     0.009642  d :     0.041976
      dxz     :     0.006105
      dyz     :     0.006961
      dx2y2   :     0.007656
      dxy     :     0.011612
  6 H s       :     0.764218  s :     0.764218
  7 H s       :     0.761315  s :     0.761315
  8 H s       :     0.752345  s :     0.752345
  9 H s       :     0.753566  s :     0.753566
 10 H s       :     0.764480  s :     0.764480
 11 C s       :     3.273996  s :     3.273996
      pz      :     1.043558  p :     2.984701
      px      :     0.903170
      py      :     1.037973
      dz2     :     0.004790  d :     0.041666
      dxz     :     0.008328
      dyz     :     0.005686
      dx2y2   :     0.011611
      dxy     :     0.011251
 12 C s       :     3.273953  s :     3.273953
      pz      :     1.033308  p :     2.979773
      px      :     1.013753
      py      :     0.932712
      dz2     :     0.005360  d :     0.042103
      dxz     :     0.007212
      dyz     :     0.007054
      dx2y2   :     0.011986
      dxy     :     0.010491
 13 C s       :     3.286892  s :     3.286892
      pz      :     1.050927  p :     2.998322
      px      :     0.939460
      py      :     1.007935
      dz2     :     0.003057  d :     0.041996
      dxz     :     0.008751
      dyz     :     0.007549
      dx2y2   :     0.011499
      dxy     :     0.011140
 14 C s       :     3.269612  s :     3.269612
      pz      :     1.001634  p :     2.944956
      px      :     1.014470
      py      :     0.928852
      dz2     :     0.006769  d :     0.042270
      dxz     :     0.005700
      dyz     :     0.006164
      dx2y2   :     0.011874
      dxy     :     0.011764
 15 H s       :     0.768119  s :     0.768119
 16 C s       :     3.270551  s :     3.270551
      pz      :     0.989159  p :     2.932227
      px      :     0.951563
      py      :     0.991504
      dz2     :     0.006292  d :     0.042919
      dxz     :     0.006786
      dyz     :     0.005956
      dx2y2   :     0.010815
      dxy     :     0.013070
 17 H s       :     0.766653  s :     0.766653
 18 H s       :     0.767816  s :     0.767816
 19 H s       :     0.758681  s :     0.758681
 20 H s       :     0.750882  s :     0.750882
 21 C s       :     3.489820  s :     3.489820
      pz      :     1.094208  p :     3.533455
      px      :     1.306796
      py      :     1.132450
      dz2     :     0.005821  d :     0.024644
      dxz     :     0.007981
      dyz     :     0.001668
      dx2y2   :     0.008094
      dxy     :     0.001081
 22 H s       :     0.796112  s :     0.796112
 23 H s       :     0.788679  s :     0.788679
 24 H s       :     0.802745  s :     0.802745
 25 C s       :     3.484587  s :     3.484587
      pz      :     1.145888  p :     3.415760
      px      :     1.123855
      py      :     1.146017
      dz2     :     0.007657  d :     0.028125
      dxz     :     0.002850
      dyz     :     0.006840
      dx2y2   :     0.003626
      dxy     :     0.007152
 26 H s       :     0.738131  s :     0.738131
 27 H s       :     0.789883  s :     0.789883
 28 H s       :     0.736707  s :     0.736707
 29 H s       :     0.745256  s :     0.745256


                     *******************************
                     * LOEWDIN POPULATION ANALYSIS *
                     *******************************

----------------------
LOEWDIN ATOMIC CHARGES
----------------------
   0 Lu:    0.025781
   1 C :   -0.127618
   2 C :   -0.151341
   3 C :   -0.131216
   4 C :   -0.147132
   5 C :   -0.147453
   6 H :    0.151720
   7 H :    0.154260
   8 H :    0.159850
   9 H :    0.157019
  10 H :    0.152180
  11 C :   -0.152736
  12 C :   -0.145150
  13 C :   -0.155533
  14 C :   -0.130515
  15 H :    0.150050
  16 C :   -0.124925
  17 H :    0.152948
  18 H :    0.150631
  19 H :    0.154830
  20 H :    0.160197
  21 C :   -0.650790
  22 H :    0.123324
  23 H :    0.130417
  24 H :    0.124550
  25 C :   -0.500142
  26 H :    0.180641
  27 H :    0.149434
  28 H :    0.143647
  29 H :    0.143071

-------------------------------
LOEWDIN REDUCED ORBITAL CHARGES
-------------------------------
  0 Lus       :     4.351991  s :     4.351991
      pz      :     4.298884  p :    12.919586
      px      :     4.336416
      py      :     4.284285
      dz2     :     2.394110  d :    11.617462
      dxz     :     2.394107
      dyz     :     2.290981
      dx2y2   :     2.265062
      dxy     :     2.273202
      f0      :     2.016615  f :    14.080753
      f+1     :     2.014568
      f-1     :     2.010756
      f+2     :     2.016694
      f-2     :     2.008104
      f+3     :     2.005342
      f-3     :     2.008673
      g0      :     0.000627  g :     0.004426
      g+1     :     0.000753
      g-1     :     0.000508
      g+2     :     0.000659
      g-2     :     0.000382
      g+3     :     0.000440
      g-3     :     0.000570
      g+4     :     0.000180
      g-4     :     0.000307
  1 C s       :     2.871946  s :     2.871946
      pz      :     1.050817  p :     3.162213
      px      :     1.061319
      py      :     1.050077
      dz2     :     0.011931  d :     0.093459
      dxz     :     0.018558
      dyz     :     0.020779
      dx2y2   :     0.022876
      dxy     :     0.019315
  2 C s       :     2.871824  s :     2.871824
      pz      :     1.055816  p :     3.187016
      px      :     1.053538
      py      :     1.077662
      dz2     :     0.017620  d :     0.092502
      dxz     :     0.015661
      dyz     :     0.017109
      dx2y2   :     0.020398
      dxy     :     0.021714
  3 C s       :     2.874788  s :     2.874788
      pz      :     1.054964  p :     3.163800
      px      :     1.055645
      py      :     1.053190
      dz2     :     0.015953  d :     0.092628
      dxz     :     0.018038
      dyz     :     0.015780
      dx2y2   :     0.019250
      dxy     :     0.023607
  4 C s       :     2.876490  s :     2.876490
      pz      :     1.068058  p :     3.179007
      px      :     1.050420
      py      :     1.060529
      dz2     :     0.011416  d :     0.091635
      dxz     :     0.017667
      dyz     :     0.019595
      dx2y2   :     0.023629
      dxy     :     0.019327
  5 C s       :     2.873346  s :     2.873346
      pz      :     1.050482  p :     3.181699
      px      :     1.068448
      py      :     1.062769
      dz2     :     0.019650  d :     0.092408
      dxz     :     0.014755
      dyz     :     0.017217
      dx2y2   :     0.018127
      dxy     :     0.022659
  6 H s       :     0.848280  s :     0.848280
  7 H s       :     0.845740  s :     0.845740
  8 H s       :     0.840150  s :     0.840150
  9 H s       :     0.842981  s :     0.842981
 10 H s       :     0.847820  s :     0.847820
 11 C s       :     2.876116  s :     2.876116
      pz      :     1.048586  p :     3.184888
      px      :     1.058441
      py      :     1.077861
      dz2     :     0.009194  d :     0.091732
      dxz     :     0.018393
      dyz     :     0.009954
      dx2y2   :     0.025374
      dxy     :     0.028817
 12 C s       :     2.872042  s :     2.872042
      pz      :     1.041826  p :     3.180125
      px      :     1.074896
      py      :     1.063402
      dz2     :     0.010428  d :     0.092983
      dxz     :     0.013520
      dyz     :     0.015703
      dx2y2   :     0.027600
      dxy     :     0.025732
 13 C s       :     2.872561  s :     2.872561
      pz      :     1.066411  p :     3.190697
      px      :     1.060895
      py      :     1.063391
      dz2     :     0.005432  d :     0.092275
      dxz     :     0.018321
      dyz     :     0.014170
      dx2y2   :     0.028289
      dxy     :     0.026064
 14 C s       :     2.876458  s :     2.876458
      pz      :     1.032201  p :     3.161319
      px      :     1.072387
      py      :     1.056730
      dz2     :     0.012726  d :     0.092737
      dxz     :     0.011695
      dyz     :     0.013802
      dx2y2   :     0.026626
      dxy     :     0.027889
 15 H s       :     0.849950  s :     0.849950
 16 C s       :     2.870147  s :     2.870147
      pz      :     1.028928  p :     3.159930
      px      :     1.065682
      py      :     1.065320
      dz2     :     0.012109  d :     0.094848
      dxz     :     0.014101
      dyz     :     0.012925
      dx2y2   :     0.027574
      dxy     :     0.028139
 17 H s       :     0.847052  s :     0.847052
 18 H s       :     0.849369  s :     0.849369
 19 H s       :     0.845170  s :     0.845170
 20 H s       :     0.839803  s :     0.839803
 21 C s       :     3.037116  s :     3.037116
      pz      :     1.121483  p :     3.574370
      px      :     1.306630
      py      :     1.146256
      dz2     :     0.009501  d :     0.039304
      dxz     :     0.012363
      dyz     :     0.003030
      dx2y2   :     0.012655
      dxy     :     0.001756
 22 H s       :     0.876676  s :     0.876676
 23 H s       :     0.869583  s :     0.869583
 24 H s       :     0.875450  s :     0.875450
 25 C s       :     3.031229  s :     3.031229
      pz      :     1.145959  p :     3.425095
      px      :     1.144564
      py      :     1.134572
      dz2     :     0.011889  d :     0.043818
      dxz     :     0.004378
      dyz     :     0.010764
      dx2y2   :     0.005531
      dxy     :     0.011255
 26 H s       :     0.819359  s :     0.819359
 27 H s       :     0.850566  s :     0.850566
 28 H s       :     0.856353  s :     0.856353
 29 H s       :     0.856929  s :     0.856929


                      *****************************
                      * MAYER POPULATION ANALYSIS *
                      *****************************

  NA   - Mulliken gross atomic population
  ZA   - Total nuclear charge
  QA   - Mulliken gross atomic charge
  VA   - Mayer's total valence
  BVA  - Mayer's bonded valence
  FA   - Mayer's free valence

  ATOM       NA         ZA         QA         VA         BVA        FA
  0 Lu    42.1549    43.0000     0.8451     3.6391     3.6391    -0.0000
  1 C      6.2533     6.0000    -0.2533     3.7680     3.7680    -0.0000
  2 C      6.3271     6.0000    -0.3271     3.7807     3.7807    -0.0000
  3 C      6.2621     6.0000    -0.2621     3.7769     3.7769    -0.0000
  4 C      6.2891     6.0000    -0.2891     3.7772     3.7772    -0.0000
  5 C      6.3056     6.0000    -0.3056     3.7761     3.7761     0.0000
  6 H      0.7642     1.0000     0.2358     0.9179     0.9179     0.0000
  7 H      0.7613     1.0000     0.2387     0.9202     0.9202    -0.0000
  8 H      0.7523     1.0000     0.2477     0.9150     0.9150     0.0000
  9 H      0.7536     1.0000     0.2464     0.9118     0.9118    -0.0000
 10 H      0.7645     1.0000     0.2355     0.9190     0.9190    -0.0000
 11 C      6.3004     6.0000    -0.3004     3.7816     3.7816     0.0000
 12 C      6.2958     6.0000    -0.2958     3.7813     3.7813     0.0000
 13 C      6.3272     6.0000    -0.3272     3.7831     3.7831     0.0000
 14 C      6.2568     6.0000    -0.2568     3.7772     3.7772     0.0000
 15 H      0.7681     1.0000     0.2319     0.9204     0.9204    -0.0000
 16 C      6.2457     6.0000    -0.2457     3.7690     3.7690     0.0000
 17 H      0.7667     1.0000     0.2333     0.9235     0.9235     0.0000
 18 H      0.7678     1.0000     0.2322     0.9205     0.9205     0.0000
 19 H      0.7587     1.0000     0.2413     0.9149     0.9149     0.0000
 20 H      0.7509     1.0000     0.2491     0.9132     0.9132     0.0000
 21 C      7.0479     6.0000    -1.0479     3.5685     3.5685     0.0000
 22 H      0.7961     1.0000     0.2039     0.9152     0.9152    -0.0000
 23 H      0.7887     1.0000     0.2113     0.9153     0.9153     0.0000
 24 H      0.8027     1.0000     0.1973     0.9144     0.9144    -0.0000
 25 C      6.9285     6.0000    -0.9285     3.6973     3.6973     0.0000
 26 H      0.7381     1.0000     0.2619     0.9152     0.9152    -0.0000
 27 H      0.7899     1.0000     0.2101     0.9246     0.9246     0.0000
 28 H      0.7367     1.0000     0.2633     0.8908     0.8908     0.0000
 29 H      0.7453     1.0000     0.2547     0.8934     0.8934    -0.0000

  Mayer bond orders larger than 0.100000
B(  0-Lu,  1-C ) :   0.2392 B(  0-Lu,  2-C ) :   0.2840 B(  0-Lu,  3-C ) :   0.2534 
B(  0-Lu,  4-C ) :   0.2593 B(  0-Lu,  5-C ) :   0.2689 B(  0-Lu, 11-C ) :   0.2634 
B(  0-Lu, 12-C ) :   0.2589 B(  0-Lu, 13-C ) :   0.2835 B(  0-Lu, 14-C ) :   0.2520 
B(  0-Lu, 16-C ) :   0.2355 B(  0-Lu, 21-C ) :   0.8035 B(  1-C ,  2-C ) :   1.2839 
B(  1-C ,  5-C ) :   1.3021 B(  1-C ,  8-H ) :   0.9151 B(  2-C ,  3-C ) :   1.2826 
B(  2-C ,  9-H ) :   0.9118 B(  3-C ,  4-C ) :   1.3058 B(  3-C , 10-H ) :   0.9174 
B(  4-C ,  5-C ) :   1.2742 B(  4-C ,  6-H ) :   0.9159 B(  5-C ,  7-H ) :   0.9200 
B( 11-C , 12-C ) :   1.2674 B( 11-C , 14-C ) :   1.3109 B( 11-C , 15-H ) :   0.9179 
B( 12-C , 16-C ) :   1.3176 B( 12-C , 17-H ) :   0.9215 B( 13-C , 14-C ) :   1.2811 
B( 13-C , 16-C ) :   1.2833 B( 13-C , 19-H ) :   0.9143 B( 14-C , 18-H ) :   0.9182 
B( 16-C , 20-H ) :   0.9125 B( 21-C , 22-H ) :   0.9145 B( 21-C , 23-H ) :   0.9132 
B( 21-C , 24-H ) :   0.9064 B( 25-C , 26-H ) :   0.8707 B( 25-C , 27-H ) :   0.9194 
B( 25-C , 28-H ) :   0.9032 B( 25-C , 29-H ) :   0.9049 


------------------
HIRSHFELD ANALYSIS
------------------

Total integrated alpha density =     66.000594394
Total integrated beta density  =     66.000594394

  ATOM     CHARGE      SPIN    
   0 Lu   0.458162    0.000000
   1 C   -0.064302    0.000000
   2 C   -0.075414    0.000000
   3 C   -0.068103    0.000000
   4 C   -0.075798    0.000000
   5 C   -0.072956    0.000000
   6 H    0.047530    0.000000
   7 H    0.050296    0.000000
   8 H    0.055928    0.000000
   9 H    0.052116    0.000000
  10 H    0.049895    0.000000
  11 C   -0.078447    0.000000
  12 C   -0.072279    0.000000
  13 C   -0.077732    0.000000
  14 C   -0.068307    0.000000
  15 H    0.045468    0.000000
  16 C   -0.064243    0.000000
  17 H    0.049993    0.000000
  18 H    0.048977    0.000000
  19 H    0.049950    0.000000
  20 H    0.055579    0.000000
  21 C   -0.314625    0.000000
  22 H   -0.007976    0.000000
  23 H   -0.001414    0.000000
  24 H   -0.007348    0.000000
  25 C   -0.095038    0.000000
  26 H    0.059442    0.000000
  27 H    0.046779    0.000000
  28 H    0.036895    0.000000
  29 H    0.035782    0.000000

  TOTAL  -0.001189    0.000000

-------
TIMINGS
-------

Total SCF time: 0 days 0 hours 8 min 20 sec 

Total time                  ....     500.213 sec
Sum of individual times     ....     498.855 sec  ( 99.7%)

Fock matrix formation       ....     494.024 sec  ( 98.8%)
  Split-RI-J                ....      67.446 sec  ( 13.7% of F)
  Chain of spheres X        ....     392.333 sec  ( 79.4% of F)
  XC integration            ....      33.800 sec  (  6.8% of F)
    Basis function eval.    ....      11.018 sec  ( 32.6% of XC)
    Density eval.           ....       8.233 sec  ( 24.4% of XC)
    XC-Functional eval.     ....       1.790 sec  (  5.3% of XC)
    XC-Potential eval.      ....      10.715 sec  ( 31.7% of XC)
Diagonalization             ....       0.270 sec  (  0.1%)
Density matrix formation    ....       0.046 sec  (  0.0%)
Population analysis         ....       0.755 sec  (  0.2%)
Initial guess               ....       0.015 sec  (  0.0%)
Orbital Transformation      ....       0.102 sec  (  0.0%)
Orbital Orthonormalization  ....       0.000 sec  (  0.0%)
DIIS solution               ....       0.093 sec  (  0.0%)
Grid generation             ....       3.549 sec  (  0.7%)

Maximum memory used throughout the entire SCF-calculation: 208.3 MB


-------------------------------------------------------------------------------
                          DFT DISPERSION CORRECTION                            
                                                                               
                              DFTD3 V3.1  Rev 1                                
                          USING Becke-Johnson damping                          
-------------------------------------------------------------------------------
The PBEh-3c composite method is recognized
Using three-body term ABC
Active option DFTDOPT                   ...         4   

molecular C6(AA) [au] = 10157.373630 


            DFT-D V3
 parameters
 s6 scaling factor         :     1.0000 
 a1 scaling factor         :     0.4860 
 s8 scaling factor         :     0.0000 
 a2 scaling factor         :     4.5000 
 Damping factor alpha9(ATM):    16.0000 
 ad hoc parameters k1-k3   :    16.0000     1.3333    -4.0000 

 Edisp/kcal,au: -10.876451735214  -0.017332727273 
 E6   /kcal   : -11.062034095 
 E8   /kcal   :  -0.000000000 
 E6(ABC)      :   0.185582360 
 % E8         :   0.000000000 
 % E6(ABC)    :  -1.706276685 

-------------------------   ----------------
Dispersion correction           -0.017332727
-------------------------   ----------------

 ** NOTE ** -> element lu will be treated as sc
NOTIFICATION: Different basis set in ORCA and otool_gcp:
ORCA: 295  gCP: 245 
If you are NOT using ECPs, check your basis set inputs!
------------------   -----------------
gCP correction             0.033375239
------------------   -----------------

-------------------------   --------------------
FINAL SINGLE POINT ENERGY     -1702.362129137238
-------------------------   --------------------

------------------------------------------------------------------------------
                         ORCA SCF GRADIENT CALCULATION
------------------------------------------------------------------------------

 ... reading COSX grid (gridx3)
Gradient of the Kohn-Sham DFT energy:
Kohn-Sham wavefunction type      ... RKS
Hartree-Fock exchange scaling    ...    0.420
Number of operators              ...    1
Number of atoms                  ...   30
Basis set dimensions             ...  295
Integral neglect threshold       ... 2.5e-11
Integral primitive cutoff        ... 2.5e-12
SHARK Integral package           ... ON

Nuc. rep. gradient       (SHARK) ... done (  0.0 sec)
HCore & Overlap gradient (SHARK) ... done (  1.0 sec)
ECP gradient             (SHARK) ... done (  2.6 sec)
RI-J gradient            (SHARK) ... done (  9.7 sec)
COSX-gradient                    ... done ( 45.2 sec)
Exchange-correlation gradient    ... done
Dispersion correction            ... done
gCP correction                   ... done

------------------
CARTESIAN GRADIENT
------------------

   1   Lu  :    0.006483416    0.008932400   -0.003691190
   2   C   :   -0.005280555   -0.001088512    0.006084541
   3   C   :    0.002895050   -0.009553401    0.005663937
   4   C   :    0.019221065   -0.005071362   -0.004192427
   5   C   :    0.003067686    0.007952791   -0.004512514
   6   C   :   -0.012746669    0.011001530    0.003181327
   7   H   :   -0.001620117   -0.001287213    0.001042088
   8   H   :    0.007686436   -0.005789936    0.001047590
   9   H   :    0.004517793    0.002626146   -0.003589612
  10   H   :   -0.003206867    0.005421331   -0.003708998
  11   H   :   -0.007190932    0.003411509    0.004394795
  12   C   :    0.002652840    0.007630818   -0.005253280
  13   C   :   -0.011733866   -0.004204565   -0.001604790
  14   C   :    0.002668572   -0.011806290    0.001731759
  15   C   :    0.013918942    0.001403216   -0.004024572
  16   H   :   -0.000864156   -0.001497325    0.001142583
  17   C   :   -0.002127774    0.000030800   -0.000021390
  18   H   :    0.005931889   -0.003231318   -0.000866629
  19   H   :   -0.004472177   -0.001387718   -0.000985573
  20   H   :   -0.003728206    0.005024965   -0.002339104
  21   H   :    0.001810513    0.003551760   -0.001766044
  22   C   :    0.006754867   -0.003873819   -0.001052781
  23   H   :   -0.007097886    0.000477183    0.010711585
  24   H   :   -0.008849147   -0.008181826    0.002255990
  25   H   :   -0.010434180   -0.001389176   -0.004002455
  26   C   :   -0.041267242   -0.045837628    0.045035793
  27   H   :   -0.008921540   -0.021528059    0.016391638
  28   H   :    0.041757615    0.046414196   -0.032984954
  29   H   :    0.005993471    0.013840863   -0.009099790
  30   H   :    0.003945955    0.009015489   -0.021189487

Difference to translation invariance:
           :   -0.0002352019    0.0010068506   -0.0062019615

Difference to rotation invariance:
           :    0.0022557123    0.0000360287   -0.0020649858

Norm of the cartesian gradient     ...    0.1230949769
RMS gradient                       ...    0.0129753498
MAX gradient                       ...    0.0464141963

-------
TIMINGS
-------

Total SCF gradient time            ...       66.018 sec

One electron gradient       ....       3.618 sec  (  5.5%)
RI-J Coulomb gradient       ....       9.671 sec  ( 14.6%)
COSX gradient               ....      45.241 sec  ( 68.5%)
XC gradient                 ....       6.232 sec  (  9.4%)

Maximum memory used throughout the entire SCFGRAD-calculation: 206.5 MB

                            ***************************************
                            *     ORCA property calculations      *
                            ***************************************

                                    ---------------------
                                    Active property flags
                                    ---------------------
   (+) Dipole Moment


------------------------------------------------------------------------------
                       ORCA ELECTRIC PROPERTIES CALCULATION
------------------------------------------------------------------------------

Dipole Moment Calculation                       ... on
Quadrupole Moment Calculation                   ... off
Polarizability Calculation                      ... off
GBWName                                         ... 1_3_orca.gbw
Electron density                                ... 1_3_orca.scfp
The origin for moment calculation is the CENTER OF MASS  = ( 0.412925, -0.424585  0.269747)

-------------
DIPOLE MOMENT
-------------
                                X             Y             Z
Electronic contribution:     -3.43547     -14.39980      12.52993
Nuclear contribution   :      3.70885      15.18424     -12.98226
                        -----------------------------------------
Total Dipole Moment    :      0.27338       0.78445      -0.45233
                        -----------------------------------------
Magnitude (a.u.)       :      0.94588
Magnitude (Debye)      :      2.40425



--------------------
Rotational spectrum 
--------------------
 
Rotational constants in cm-1:     0.028206     0.019399     0.017454 
Rotational constants in MHz :   845.579636   581.581768   523.254118 

 Dipole components along the rotational axes: 
x,y,z [a.u.] :     0.034416     0.013777    -0.945158 
x,y,z [Debye]:     0.087478     0.035018    -2.402400 

 

Timings for individual modules:

Sum of individual times         ...      567.718 sec (=   9.462 min)
GTO integral calculation        ...        1.423 sec (=   0.024 min)   0.3 %
SCF iterations                  ...      500.248 sec (=   8.337 min)  88.1 %
SCF Gradient evaluation         ...       66.047 sec (=   1.101 min)  11.6 %
                             ****ORCA TERMINATED NORMALLY****
TOTAL RUN TIME: 0 days 0 hours 9 minutes 28 seconds 273 msec
