
                                 *****************
                                 * O   R   C   A *
                                 *****************

                                            #,                                       
                                            ###                                      
                                            ####                                     
                                            #####                                    
                                            ######                                   
                                           ########,                                 
                                     ,,################,,,,,                         
                               ,,#################################,,                 
                          ,,##########################################,,             
                       ,#########################################, ''#####,          
                    ,#############################################,,   '####,        
                  ,##################################################,,,,####,       
                ,###########''''           ''''###############################       
              ,#####''   ,,,,##########,,,,          '''####'''          '####       
            ,##' ,,,,###########################,,,                        '##       
           ' ,,###''''                  '''############,,,                           
         ,,##''                                '''############,,,,        ,,,,,,###''
      ,#''                                            '''#######################'''  
     '                                                          ''''####''''         
             ,#######,   #######,   ,#######,      ##                                
            ,#'     '#,  ##    ##  ,#'     '#,    #''#        ######   ,####,        
            ##       ##  ##   ,#'  ##            #'  '#       #        #'  '#        
            ##       ##  #######   ##           ,######,      #####,   #    #        
            '#,     ,#'  ##    ##  '#,     ,#' ,#      #,         ##   #,  ,#        
             '#######'   ##     ##  '#######'  #'      '#     #####' # '####'        



                  #######################################################
                  #                        -***-                        #
                  #          Department of theory and spectroscopy      #
                  #    Directorship and core code : Frank Neese         #
                  #        Max Planck Institute fuer Kohlenforschung    #
                  #                Kaiser Wilhelm Platz 1               #
                  #                 D-45470 Muelheim/Ruhr               #
                  #                      Germany                        #
                  #                                                     #
                  #                  All rights reserved                #
                  #                        -***-                        #
                  #######################################################


                         Program Version 5.0.3 -  RELEASE  -


 With contributions from (in alphabetic order):
   Daniel Aravena         : Magnetic Suceptibility
   Michael Atanasov       : Ab Initio Ligand Field Theory (pilot matlab implementation)
   Alexander A. Auer      : GIAO ZORA, VPT2 properties, NMR spectrum
   Ute Becker             : Parallelization
   Giovanni Bistoni       : ED, misc. LED, open-shell LED, HFLD
   Martin Brehm           : Molecular dynamics
   Dmytro Bykov           : SCF Hessian
   Vijay G. Chilkuri      : MRCI spin determinant printing, contributions to CSF-ICE
   Dipayan Datta          : RHF DLPNO-CCSD density
   Achintya Kumar Dutta   : EOM-CC, STEOM-CC
   Dmitry Ganyushin       : Spin-Orbit,Spin-Spin,Magnetic field MRCI
   Miquel Garcia          : C-PCM and meta-GGA Hessian, CC/C-PCM, Gaussian charge scheme
   Yang Guo               : DLPNO-NEVPT2, F12-NEVPT2, CIM, IAO-localization
   Andreas Hansen         : Spin unrestricted coupled pair/coupled cluster methods
   Benjamin Helmich-Paris : MC-RPA, TRAH-SCF, COSX integrals
   Lee Huntington         : MR-EOM, pCC
   Robert Izsak           : Overlap fitted RIJCOSX, COSX-SCS-MP3, EOM
   Marcus Kettner         : VPT2
   Christian Kollmar      : KDIIS, OOCD, Brueckner-CCSD(T), CCSD density, CASPT2, CASPT2-K
   Simone Kossmann        : Meta GGA functionals, TD-DFT gradient, OOMP2, MP2 Hessian
   Martin Krupicka        : Initial AUTO-CI
   Lucas Lang             : DCDCAS
   Marvin Lechner         : AUTO-CI (C++ implementation), FIC-MRCC
   Dagmar Lenk            : GEPOL surface, SMD
   Dimitrios Liakos       : Extrapolation schemes; Compound Job, initial MDCI parallelization
   Dimitrios Manganas     : Further ROCIS development; embedding schemes
   Dimitrios Pantazis     : SARC Basis sets
   Anastasios Papadopoulos: AUTO-CI, single reference methods and gradients
   Taras Petrenko         : DFT Hessian,TD-DFT gradient, ASA, ECA, R-Raman, ABS, FL, XAS/XES, NRVS
   Peter Pinski           : DLPNO-MP2, DLPNO-MP2 Gradient
   Christoph Reimann      : Effective Core Potentials
   Marius Retegan         : Local ZFS, SOC
   Christoph Riplinger    : Optimizer, TS searches, QM/MM, DLPNO-CCSD(T), (RO)-DLPNO pert. Triples
   Tobias Risthaus        : Range-separated hybrids, TD-DFT gradient, RPA, STAB
   Michael Roemelt        : Original ROCIS implementation
   Masaaki Saitow         : Open-shell DLPNO-CCSD energy and density
   Barbara Sandhoefer     : DKH picture change effects
   Avijit Sen             : IP-ROCIS
   Kantharuban Sivalingam : CASSCF convergence, NEVPT2, FIC-MRCI
   Bernardo de Souza      : ESD, SOC TD-DFT
   Georgi Stoychev        : AutoAux, RI-MP2 NMR, DLPNO-MP2 response
   Willem Van den Heuvel  : Paramagnetic NMR
   Boris Wezisla          : Elementary symmetry handling
   Frank Wennmohs         : Technical directorship


 We gratefully acknowledge several colleagues who have allowed us to
 interface, adapt or use parts of their codes:
   Stefan Grimme, W. Hujo, H. Kruse, P. Pracht,  : VdW corrections, initial TS optimization,
                  C. Bannwarth, S. Ehlert          DFT functionals, gCP, sTDA/sTD-DF
   Ed Valeev, F. Pavosevic, A. Kumar             : LibInt (2-el integral package), F12 methods
   Garnet Chan, S. Sharma, J. Yang, R. Olivares  : DMRG
   Ulf Ekstrom                                   : XCFun DFT Library
   Mihaly Kallay                                 : mrcc  (arbitrary order and MRCC methods)
   Jiri Pittner, Ondrej Demel                    : Mk-CCSD
   Frank Weinhold                                : gennbo (NPA and NBO analysis)
   Christopher J. Cramer and Donald G. Truhlar   : smd solvation model
   Lars Goerigk                                  : TD-DFT with DH, B97 family of functionals
   V. Asgeirsson, H. Jonsson                     : NEB implementation
   FAccTs GmbH                                   : IRC, NEB, NEB-TS, DLPNO-Multilevel, CI-OPT
                                                   MM, QMMM, 2- and 3-layer-ONIOM, Crystal-QMMM,
                                                   LR-CPCM, SF, NACMEs, symmetry and pop. for TD-DFT,
                                                   nearIR, NL-DFT gradient (VV10), updates on ESD,
                                                   ML-optimized integration grids
   S Lehtola, MJT Oliveira, MAL Marques          : LibXC Library
   Liviu Ungur et al                             : ANISO software


 Your calculation uses the libint2 library for the computation of 2-el integrals
 For citations please refer to: http://libint.valeyev.net

 Your ORCA version has been built with support for libXC version: 5.1.0
 For citations please refer to: https://tddft.org/programs/libxc/

 This ORCA versions uses:
   CBLAS   interface :  Fast vector & matrix operations
   LAPACKE interface :  Fast linear algebra routines
   SCALAPACK package :  Parallel linear algebra routines
   Shared memory     :  Shared parallel matrices
   BLAS/LAPACK       :  OpenBLAS 0.3.15  USE64BITINT DYNAMIC_ARCH NO_AFFINITY Prescott SINGLE_THREADED
        Core in use  :  Prescott
   Copyright (c) 2011-2014, The OpenBLAS Project


Your calculation utilizes the geometrical counterpoise correction gCP
Please cite in your paper:
H.Kruse, S. Grimme J.Chem.Phys., 136, (2012), 154101 
   

Your calculation utilizes the atom-pairwise dispersion correction
with the Becke-Johnson damping scheme (D3BJ)
Cite in your paper:
S.Grimme, S.Ehrlich, L.Goerigk, J Comput Chem, (2011), 32, 1456–1465 
S.Grimme, J.Antony, S.Ehrlich and H.Krieg, J.Chem.Phys., 132, (2010), 154104 
   

Your calculation employs the composite approach PBEh-3c.
Please cite in your paper:
S. Grimme, J. G. Brandenburg, C. Bannwarth, A. Hansen J.Chem.Phys., 143, (2015), 054107 
   

================================================================================

cite the ECPs for Pd [Def2-ECP] as follows:
Ce-Yb(ecp-28): M. Dolg, H. Stoll, H.Preuss, J. Chem. Phys., 1989, 90, 1730-1734.
Y-Cd(ecp-28), Hf-Hg(ecp-46): D. Andrae,U. Haeussermann, M. Dolg, H. Stoll, H. Preuss, Theor. Chim. Acta, 1990, 77, 123-141.
In-Sb(ecp-28), Tl-Bi(ecp-46): B. Metz, H. Stoll, M. Dolg, J. Chem. Phys., 2000, 113, 2563-2569.
Te-Xe(ecp-28), Po-Rn(ecp-46): K. A. Peterson, D. Figgen, E. Goll, H. Stoll, M. Dolg, J. Chem. Phys., 2003, 119, 11113-11123.
Rb(ecp-28), Cs(ecp-46): T. Leininger, A. Nicklass, W. Kuechle, H. Stoll, M. Dolg, A. Bergner, Chem. Phys. Lett., 1996, 255, 274-280.
Sr(ecp-28), Ba(ecp-46): M. Kaupp, P. V. Schleyer, H. Stoll and H. Preuss, J. Chem. Phys., 1991, 94, 1360-1366.
La(ecp-46): M. Dolg, H. Stoll, A. Savin, H. Preuss, Theor. Chim. Acta, 1989, 75, 173-194.
Lu(ecp-28): X. Cao, M. Dolg, J. Chem. Phys., 2001, 115, 7348-7355.

ECP parameters for Pd [Def2-ECP] have been obtained from:
TURBOMOLE (7.0.2)

----- Orbital basis set information -----
Your calculation utilizes the basis: def2-mSVP

----- AuxJ basis set information -----
Your calculation utilizes the auxiliary basis: def2/J
   F. Weigend, Phys. Chem. Chem. Phys. 8, 1057 (2006).

================================================================================
                                        WARNINGS
                       Please study these warnings very carefully!
================================================================================


INFO   : the flag for use of the SHARK integral package has been found!

================================================================================
                                       INPUT FILE
================================================================================
NAME = 5_19_orca.inp
|  1> ! EnGrad PBEh-3c
|  2> %output 
|  3> xyzfile=True 
|  4> end 
|  5> %scf 
|  6> maxiter 250 
|  7> end
|  8> %output
|  9> Print[P_Hirshfeld] = 1
| 10> end
| 11> % maxcore
| 12> 4000
| 13> *xyz -1 1
| 14> C   -2.06998211  -0.15672065   0.68866114 
| 15> C   -1.83068531   1.06608059   1.36165529 
| 16> C   -3.45186085  -0.49236605   0.69248633 
| 17> C   -4.48716334   0.33546835   1.17340017 
| 18> C   -4.18585054   1.59364244   1.68763580 
| 19> C   -2.84809160   1.93567071   1.83172182 
| 20> H   -1.46179385  -1.84263821  -2.22746738 
| 21> H   -3.77523875  -1.42709265   0.27865803 
| 22> H   -2.60204913   2.86816781   2.34900727 
| 23> H   -5.54168902   0.03579064   1.10571755 
| 24> H   -4.96490417   2.27416185   2.04364119 
| 25> C   -0.42721631   1.57259683   1.66122272 
| 26> C    0.67764218   0.51457500   1.92733354 
| 27> H   -0.52166721   2.20076345   2.57125966 
| 28> H   -0.07768552   2.24139904   0.86137962 
| 29> C    1.72578144   0.60930524   0.87235805 
| 30> H    0.24250022  -0.48447596   1.96424534 
| 31> H    1.12032791   0.71385247   2.90411171 
| 32> C    1.53989661  -0.04864316  -0.34482790 
| 33> C    2.53534097   0.15294266  -1.31423882 
| 34> C    3.58794685   1.05243663  -1.11702394 
| 35> C    2.81553078   1.45073512   1.08932421 
| 36> C    3.74878957   1.68985206   0.09847501 
| 37> H    2.53621006  -0.38014900  -2.25299957 
| 38> H    4.32145175   1.22640959  -1.89688571 
| 39> H    2.95943158   1.89322919   2.06932822 
| 40> H    4.55851396   2.39072998   0.26504810 
| 41> Pd  -0.06656087  -1.32793891  -0.38748048 
| 42> Br  -1.82933197  -3.32296150  -0.74040733 
| 43> P    1.40712054  -2.94947965  -0.03401062 
| 44> H    1.01072267  -3.56331292   1.17820592 
| 45> C    0.14922636  -1.34927178  -3.78756249 
| 46> O    1.22789370  -1.79312258  -4.05707886 
| 47> O   -0.83200369  -1.97592899  -3.13330624 
| 48> O   -0.15543438  -0.09374670  -4.23465782 
| 49> H    2.75214113  -2.73274004   0.34146024 
| 50> H    1.57791690  -4.12379901  -0.77944645 
| 51> H    0.62112372   0.24549694  -4.71470565 
| 52> *
| 53> 
| 54>                          ****END OF INPUT****
================================================================================

                     *******************************
                     * Energy+Gradient Calculation *
                     *******************************

---------------------------------
CARTESIAN COORDINATES (ANGSTROEM)
---------------------------------
  C     -2.069982   -0.156721    0.688661
  C     -1.830685    1.066081    1.361655
  C     -3.451861   -0.492366    0.692486
  C     -4.487163    0.335468    1.173400
  C     -4.185851    1.593642    1.687636
  C     -2.848092    1.935671    1.831722
  H     -1.461794   -1.842638   -2.227467
  H     -3.775239   -1.427093    0.278658
  H     -2.602049    2.868168    2.349007
  H     -5.541689    0.035791    1.105718
  H     -4.964904    2.274162    2.043641
  C     -0.427216    1.572597    1.661223
  C      0.677642    0.514575    1.927334
  H     -0.521667    2.200763    2.571260
  H     -0.077686    2.241399    0.861380
  C      1.725781    0.609305    0.872358
  H      0.242500   -0.484476    1.964245
  H      1.120328    0.713852    2.904112
  C      1.539897   -0.048643   -0.344828
  C      2.535341    0.152943   -1.314239
  C      3.587947    1.052437   -1.117024
  C      2.815531    1.450735    1.089324
  C      3.748790    1.689852    0.098475
  H      2.536210   -0.380149   -2.253000
  H      4.321452    1.226410   -1.896886
  H      2.959432    1.893229    2.069328
  H      4.558514    2.390730    0.265048
  Pd    -0.066561   -1.327939   -0.387480
  Br    -1.829332   -3.322961   -0.740407
  P      1.407121   -2.949480   -0.034011
  H      1.010723   -3.563313    1.178206
  C      0.149226   -1.349272   -3.787562
  O      1.227894   -1.793123   -4.057079
  O     -0.832004   -1.975929   -3.133306
  O     -0.155434   -0.093747   -4.234658
  H      2.752141   -2.732740    0.341460
  H      1.577917   -4.123799   -0.779446
  H      0.621124    0.245497   -4.714706

----------------------------
CARTESIAN COORDINATES (A.U.)
----------------------------
  NO LB      ZA    FRAG     MASS         X           Y           Z
   0 C     6.0000    0    12.011   -3.911699   -0.296159    1.301381
   1 C     6.0000    0    12.011   -3.459494    2.014600    2.573156
   2 C     6.0000    0    12.011   -6.523072   -0.930437    1.308610
   3 C     6.0000    0    12.011   -8.479510    0.633943    2.217405
   4 C     6.0000    0    12.011   -7.910111    3.011548    3.189169
   5 C     6.0000    0    12.011   -5.382113    3.657888    3.461453
   6 H     1.0000    0     1.008   -2.762390   -3.482082   -4.209303
   7 H     1.0000    0     1.008   -7.134167   -2.696814    0.526587
   8 H     1.0000    0     1.008   -4.917160    5.420052    4.438980
   9 H     1.0000    0     1.008  -10.472275    0.067635    2.089503
  10 H     1.0000    0     1.008   -9.382309    4.297543    3.861922
  11 C     6.0000    0    12.011   -0.807322    2.971777    3.139256
  12 C     6.0000    0    12.011    1.280558    0.972406    3.642133
  13 H     1.0000    0     1.008   -0.985808    4.158840    4.858977
  14 H     1.0000    0     1.008   -0.146804    4.235630    1.627772
  15 C     6.0000    0    12.011    3.261254    1.151420    1.648518
  16 H     1.0000    0     1.008    0.458259   -0.915527    3.711886
  17 H     1.0000    0     1.008    2.117113    1.348986    5.487976
  18 C     6.0000    0    12.011    2.909983   -0.091922   -0.651630
  19 C     6.0000    0    12.011    4.791100    0.289020   -2.483551
  20 C     6.0000    0    12.011    6.780237    1.988817   -2.110869
  21 C     6.0000    0    12.011    5.320582    2.741492    2.058524
  22 C     6.0000    0    12.011    7.084186    3.193358    0.186091
  23 H     1.0000    0     1.008    4.792742   -0.718378   -4.257552
  24 H     1.0000    0     1.008    8.166360    2.317578   -3.584594
  25 H     1.0000    0     1.008    5.592515    3.577685    3.910464
  26 H     1.0000    0     1.008    8.614343    4.517825    0.500868
  27 Pd   18.0000*   0   106.400   -0.125782   -2.509441   -0.732232
  28 Br   35.0000    0    79.900   -3.456936   -6.279487   -1.399167
  29 P    15.0000    0    30.974    2.659072   -5.573709   -0.064271
  30 H     1.0000    0     1.008    1.909989   -6.733686    2.226487
  31 C     6.0000    0    12.011    0.281997   -2.549754   -7.157456
  32 O     8.0000    0    15.999    2.320383   -3.388511   -7.666768
  33 O     8.0000    0    15.999   -1.572259   -3.733965   -5.921091
  34 O     8.0000    0    15.999   -0.293728   -0.177156   -8.002344
  35 H     1.0000    0     1.008    5.200793   -5.164130    0.645266
  36 H     1.0000    0     1.008    2.981831   -7.792851   -1.472940
  37 H     1.0000    0     1.008    1.173754    0.463922   -8.909502
* core charge reduced due to ECP

--------------------------------
INTERNAL COORDINATES (ANGSTROEM)
--------------------------------
 C      0   0   0     0.000000000000     0.00000000     0.00000000
 C      1   0   0     1.416130981573     0.00000000     0.00000000
 C      1   2   0     1.422062346975   111.51414472     0.00000000
 C      3   1   2     1.410120264774   125.15580418     6.25510114
 C      4   3   1     1.392203191834   119.84260845     0.42257381
 C      5   4   3     1.388287830455   118.00418023   353.62032648
 H      1   2   3     3.422866711380   143.14507612   129.12972313
 H      3   1   2     1.072166472539   119.85599777   184.26479585
 H      6   5   4     1.094382006127   118.39980425   187.52087414
 H      4   3   1     1.098367915000   121.58065257   177.14034778
 H      5   4   3     1.093970321129   121.88745261   178.25659111
 C      2   1   3     1.521849066255   122.46428787   172.01430408
 C     12   2   1     1.552719370718   117.59116039   328.16693768
 H     12   2   1     1.109811473701   105.74230016   207.79015955
 H     12   2   1     1.099644103279   110.63305212    93.19882438
 C     13  12   2     1.490148654069   109.62409212   116.68641967
 H     13  12   2     1.090327394414   110.25373063   353.84796106
 H     13  12   2     1.090769342704   108.52820635   236.47016081
 C     16  13  12     1.396062643281   119.58014451   276.22483661
 C     19  16  13     1.404031284728   116.09839323   176.42026767
 C     20  19  16     1.398557202824   121.91039723   354.49373479
 C     16  13  12     1.393783405545   118.56253896    90.76795597
 C     21  20  19     1.381885128522   120.55087156     5.83084283
 H     20  19  16     1.079564365390   122.01004619   174.19142274
 H     21  20  19     1.084656816437   120.71354894   182.79225400
 H     22  16  13     1.084857733457   119.37812172     9.49541004
 H     23  21  20     1.083803506553   121.36173877   180.12375724
 Pd    19  16  13     2.054050265596   114.56754992   350.56557887
 Br     7   1   2     2.130208652897    73.55398159   155.62735253
 P     28  19  16     2.219475661409    86.12548530   260.79489512
 H     30  28  19     1.415412128869   105.50286577   120.60070844
 C      7   1   2     2.296234592442   126.70280923    17.17956923
 O     32   7   1     1.197149045333   134.86616735   101.45899598
 O      7   1   2     1.111281295601   148.67472175    22.38289341
 O     32   7   1     1.367134092587   105.25770010   298.62836461
 H     30  28  19     1.413164821518   124.20952703    11.87842933
 H     30  28  19     1.401382150774   127.47599264   232.79788338
 H     35  32   7     0.973947970399   107.66133719   165.32099197

---------------------------
INTERNAL COORDINATES (A.U.)
---------------------------
 C      0   0   0     0.000000000000     0.00000000     0.00000000
 C      1   0   0     2.676099724933     0.00000000     0.00000000
 C      1   2   0     2.687308381144   111.51414472     0.00000000
 C      3   1   2     2.664741116316   125.15580418     6.25510114
 C      4   3   1     2.630882755337   119.84260845     0.42257381
 C      5   4   3     2.623483794615   118.00418023   353.62032648
 H      1   2   3     6.468280677424   143.14507612   129.12972313
 H      3   1   2     2.026101003071   119.85599777   184.26479585
 H      6   5   4     2.068082277471   118.39980425   187.52087414
 H      4   3   1     2.075614553635   121.58065257   177.14034778
 H      5   4   3     2.067304305572   121.88745261   178.25659111
 C      2   1   3     2.875877952386   122.46428787   172.01430408
 C     12   2   1     2.934214373491   117.59116039   328.16693768
 H     12   2   1     2.097239745578   105.74230016   207.79015955
 H     12   2   1     2.078026199979   110.63305212    93.19882438
 C     13  12   2     2.815972855022   109.62409212   116.68641967
 H     13  12   2     2.060420171754   110.25373063   353.84796106
 H     13  12   2     2.061255332989   108.52820635   236.47016081
 C     16  13  12     2.638176061599   119.58014451   276.22483661
 C     19  16  13     2.653234611594   116.09839323   176.42026767
 C     20  19  16     2.642890095960   121.91039723   354.49373479
 C     16  13  12     2.633868926484   118.56253896    90.76795597
 C     21  20  19     2.611384441445   120.55087156     5.83084283
 H     20  19  16     2.040080994527   122.01004619   174.19142274
 H     21  20  19     2.049704332356   120.71354894   182.79225400
 H     22  16  13     2.050084010501   119.37812172     9.49541004
 H     23  21  20     2.048091810369   121.36173877   180.12375724
 Pd    19  16  13     3.881592467285   114.56754992   350.56557887
 Br     7   1   2     4.025510962084    73.55398159   155.62735253
 P     28  19  16     4.194201160967    86.12548530   260.79489512
 H     30  28  19     2.674741290193   105.50286577   120.60070844
 C      7   1   2     4.339254518951   126.70280923    17.17956923
 O     32   7   1     2.262283837164   134.86616735   101.45899598
 O      7   1   2     2.100017306434   148.67472175    22.38289341
 O     32   7   1     2.583509023337   105.25770010   298.62836461
 H     30  28  19     2.670494494761   124.20952703    11.87842933
 H     30  28  19     2.648228473928   127.47599264   232.79788338
 H     35  32   7     1.840494932742   107.66133719   165.32099197

---------------------
BASIS SET INFORMATION
---------------------
There are 6 groups of distinct atoms

 Group   1 Type C   : 8s4p1d contracted to 4s2p1d pattern {5111/31/1}
 Group   2 Type H   : 4s contracted to 2s pattern {31}
 Group   3 Type Pd  : 7s6p5d1f contracted to 5s3p2d1f pattern {31111/411/41/1}
 Group   4 Type Br  : 14s10p6d contracted to 5s4p3d pattern {63311/5311/411}
 Group   5 Type P   : 10s7p1d contracted to 4s3p1d pattern {5311/511/1}
 Group   6 Type O   : 8s4p1d contracted to 4s2p1d pattern {5111/31/1}

Atom   0C    basis set group =>   1
Atom   1C    basis set group =>   1
Atom   2C    basis set group =>   1
Atom   3C    basis set group =>   1
Atom   4C    basis set group =>   1
Atom   5C    basis set group =>   1
Atom   6H    basis set group =>   2
Atom   7H    basis set group =>   2
Atom   8H    basis set group =>   2
Atom   9H    basis set group =>   2
Atom  10H    basis set group =>   2
Atom  11C    basis set group =>   1
Atom  12C    basis set group =>   1
Atom  13H    basis set group =>   2
Atom  14H    basis set group =>   2
Atom  15C    basis set group =>   1
Atom  16H    basis set group =>   2
Atom  17H    basis set group =>   2
Atom  18C    basis set group =>   1
Atom  19C    basis set group =>   1
Atom  20C    basis set group =>   1
Atom  21C    basis set group =>   1
Atom  22C    basis set group =>   1
Atom  23H    basis set group =>   2
Atom  24H    basis set group =>   2
Atom  25H    basis set group =>   2
Atom  26H    basis set group =>   2
Atom  27Pd   basis set group =>   3
Atom  28Br   basis set group =>   4
Atom  29P    basis set group =>   5
Atom  30H    basis set group =>   2
Atom  31C    basis set group =>   1
Atom  32O    basis set group =>   6
Atom  33O    basis set group =>   6
Atom  34O    basis set group =>   6
Atom  35H    basis set group =>   2
Atom  36H    basis set group =>   2
Atom  37H    basis set group =>   2
---------------------------------
AUXILIARY/J BASIS SET INFORMATION
---------------------------------
There are 6 groups of distinct atoms

 Group   1 Type C   : 12s5p4d2f1g contracted to 6s4p3d1f1g pattern {711111/2111/211/2/1}
 Group   2 Type H   : 5s2p1d contracted to 3s1p1d pattern {311/2/1}
 Group   3 Type Pd  : 11s5p5d3f3g contracted to 8s5p5d2f3g pattern {41111111/11111/11111/21/111}
 Group   4 Type Br  : 19s5p5d3f1g contracted to 8s4p3d2f1g pattern {121111111/2111/311/21/1}
 Group   5 Type P   : 14s5p5d2f1g contracted to 8s4p3d1f1g pattern {71111111/2111/311/2/1}
 Group   6 Type O   : 12s5p4d2f1g contracted to 6s4p3d1f1g pattern {711111/2111/211/2/1}

Atom   0C    basis set group =>   1
Atom   1C    basis set group =>   1
Atom   2C    basis set group =>   1
Atom   3C    basis set group =>   1
Atom   4C    basis set group =>   1
Atom   5C    basis set group =>   1
Atom   6H    basis set group =>   2
Atom   7H    basis set group =>   2
Atom   8H    basis set group =>   2
Atom   9H    basis set group =>   2
Atom  10H    basis set group =>   2
Atom  11C    basis set group =>   1
Atom  12C    basis set group =>   1
Atom  13H    basis set group =>   2
Atom  14H    basis set group =>   2
Atom  15C    basis set group =>   1
Atom  16H    basis set group =>   2
Atom  17H    basis set group =>   2
Atom  18C    basis set group =>   1
Atom  19C    basis set group =>   1
Atom  20C    basis set group =>   1
Atom  21C    basis set group =>   1
Atom  22C    basis set group =>   1
Atom  23H    basis set group =>   2
Atom  24H    basis set group =>   2
Atom  25H    basis set group =>   2
Atom  26H    basis set group =>   2
Atom  27Pd   basis set group =>   3
Atom  28Br   basis set group =>   4
Atom  29P    basis set group =>   5
Atom  30H    basis set group =>   2
Atom  31C    basis set group =>   1
Atom  32O    basis set group =>   6
Atom  33O    basis set group =>   6
Atom  34O    basis set group =>   6
Atom  35H    basis set group =>   2
Atom  36H    basis set group =>   2
Atom  37H    basis set group =>   2
-------------------------
ECP PARAMETER INFORMATION
-------------------------

 Group 1, Type Pd ECP Def2-ECP (replacing 28 core electrons, lmax=3)

Atom  27Pd   ECP group =>   1

------------------------------------------------------------------------------
                           ORCA GTO INTEGRAL CALCULATION
                           -- RI-GTO INTEGRALS CHOSEN --
------------------------------------------------------------------------------
------------------------------------------------------------------------------
                   ___                                                        
                  /   \      - P O W E R E D   B Y -                         
                 /     \                                                     
                 |  |  |   _    _      __       _____    __    __             
                 |  |  |  | |  | |    /  \     |  _  \  |  |  /  |          
                  \  \/   | |  | |   /    \    | | | |  |  | /  /          
                 / \  \   | |__| |  /  /\  \   | |_| |  |  |/  /          
                |  |  |   |  __  | /  /__\  \  |    /   |      \           
                |  |  |   | |  | | |   __   |  |    \   |  |\   \          
                \     /   | |  | | |  |  |  |  | |\  \  |  | \   \       
                 \___/    |_|  |_| |__|  |__|  |_| \__\ |__|  \__/        
                                                                              
                      - O R C A' S   B I G   F R I E N D -                    
                                      &                                       
                       - I N T E G R A L  F E E D E R -                       
                                                                              
 v1 FN, 2020, v2 2021                                                         
------------------------------------------------------------------------------


Reading SHARK input file 5_19_orca.SHARKINP.tmp ... ok
----------------------
SHARK INTEGRAL PACKAGE
----------------------

Number of atoms                             ...     38
Number of basis functions                   ...    385
Number of shells                            ...    191
Maximum angular momentum                    ...      3
Integral batch strategy                     ... SHARK/LIBINT Hybrid
RI-J (if used) integral strategy            ... SPLIT-RIJ (Revised 2003 algorithm where possible)
Printlevel                                  ...      1
Contraction scheme used                     ... SEGMENTED contraction
Coulomb Range Separation                    ... NOT USED
Exchange Range Separation                   ... NOT USED
Finite Nucleus Model                        ... NOT USED
Auxiliary Coulomb fitting basis             ... AVAILABLE
   # of basis functions in Aux-J            ...   1267
   # of shells in Aux-J                     ...    413
   Maximum angular momentum in Aux-J        ...      4
Auxiliary J/K fitting basis                 ... NOT available
Auxiliary Correlation fitting basis         ... NOT available
Auxiliary 'external' fitting basis          ... NOT available
Integral threshold                          ...     2.500000e-11
Primitive cut-off                           ...     2.500000e-12
Primitive pair pre-selection threshold      ...     2.500000e-12

Calculating pre-screening integrals         ... done (  0.1 sec) Dimension = 191
Organizing shell pair data                  ... done (  0.1 sec)
Shell pair information
Total number of shell pairs                 ...     18336
Shell pairs after pre-screening             ...     12346
Total number of primitive shell pairs       ...     68628
Primitive shell pairs kept                  ...     28390
          la=0 lb=0:   4368 shell pairs
          la=1 lb=0:   4150 shell pairs
          la=1 lb=1:    937 shell pairs
          la=2 lb=0:   1723 shell pairs
          la=2 lb=1:    847 shell pairs
          la=2 lb=2:    183 shell pairs
          la=3 lb=0:     75 shell pairs
          la=3 lb=1:     42 shell pairs
          la=3 lb=2:     20 shell pairs
          la=3 lb=3:      1 shell pairs

Calculating one electron integrals          ... done (  0.1 sec)
Calculating ECP integrals                   ... done (  0.6 sec)
Calculating RI/J V-Matrix + Cholesky decomp.... done (  0.2 sec)
Calculating Nuclear repulsion               ... done (  0.0 sec) ENN=   2545.025465797505 Eh

SHARK setup successfully completed in   1.4 seconds

Maximum memory used throughout the entire GTOINT-calculation: 96.2 MB
-------------------------------------------------------------------------------
                                 ORCA SCF
-------------------------------------------------------------------------------

------------
SCF SETTINGS
------------
Hamiltonian:
 Density Functional     Method          .... DFT(GTOs)
 Exchange Functional    Exchange        .... PBE
   PBE kappa parameter   XKappa         ....  1.024500
   PBE mue parameter    XMuePBE         ....  0.123457
 Correlation Functional Correlation     .... PBE
   PBE beta parameter  CBetaPBE         ....  0.030000
 LDA part of GGA corr.  LDAOpt          .... PW91-LDA
 Gradients option       PostSCFGGA      .... off
 Hybrid DFT is turned on
   Fraction HF Exchange ScalHFX         ....  0.420000
   Scaling of DF-GGA-X  ScalDFX         ....  0.580000
   Scaling of DF-GGA-C  ScalDFC         ....  1.000000
   Scaling of DF-LDA-C  ScalLDAC        ....  1.000000
   Perturbative correction              ....  0.000000
   Density functional embedding theory  .... OFF
 RI-approximation to the Coulomb term is turned on
   Number of AuxJ basis functions       .... 1267
   RIJ-ON(X) (HFX calculated with O(N)) .... on
   Number of AuxJ basis functions       .... 1267
   RIJ-COSX (HFX calculated with COS-X)).... on


General Settings:
 Integral files         IntName         .... 5_19_orca
 Hartree-Fock type      HFTyp           .... RHF
 Total Charge           Charge          ....   -1
 Multiplicity           Mult            ....    1
 Number of Electrons    NEL             ....  200
 Basis Dimension        Dim             ....  385
 Nuclear Repulsion      ENuc            ....   2545.0254657975 Eh

Convergence Acceleration:
 DIIS                   CNVDIIS         .... on
   Start iteration      DIISMaxIt       ....    12
   Startup error        DIISStart       ....  0.200000
   # of expansion vecs  DIISMaxEq       ....     5
   Bias factor          DIISBfac        ....   1.050
   Max. coefficient     DIISMaxC        ....  10.000
 Trust-Rad. Augm. Hess. CNVTRAH         .... auto
   Auto Start mean grad. ratio tolernc. ....  1.125000
   Auto Start start iteration           ....    20
   Auto Start num. interpolation iter.  ....    10
   Max. Number of Micro iterations      ....    16
   Max. Number of Macro iterations      .... Maxiter - #DIIS iter
   Number of Davidson start vectors     ....     2
   Converg. threshold I  (grad. norm)   ....   1.000e-05
   Converg. threshold II (energy diff.) ....   1.000e-08
   Grad. Scal. Fac. for Micro threshold ....   0.100
   Minimum threshold for Micro iter.    ....   0.010
   NR start threshold (gradient norm)   ....   0.001
   Initial trust radius                 ....   0.400
   Minimum AH scaling param. (alpha)    ....   1.000
   Maximum AH scaling param. (alpha)    .... 1000.000
   Orbital update algorithm             .... Taylor
   White noise on init. David. guess    .... on
   Maximum white noise                  ....   0.010
   Quad. conv. algorithm                .... NR
   COSX micro iterations for RIJONX calc.... off
 SOSCF                  CNVSOSCF        .... off
 Level Shifting         CNVShift        .... on
   Level shift para.    LevelShift      ....    0.2500
   Turn off err/grad.   ShiftErr        ....    0.0010
 Zerner damping         CNVZerner       .... off
 Static damping         CNVDamp         .... on
   Fraction old density DampFac         ....    0.7000
   Max. Damping (<1)    DampMax         ....    0.9800
   Min. Damping (>=0)   DampMin         ....    0.0000
   Turn off err/grad.   DampErr         ....    0.1000
 Fernandez-Rico         CNVRico         .... off

SCF Procedure:
 Maximum # iterations   MaxIter         ....   250
 SCF integral mode      SCFMode         .... Direct
   Integral package                     .... SHARK and LIBINT hybrid scheme
 Reset frequency        DirectResetFreq ....    20
 Integral Threshold     Thresh          ....  2.500e-11 Eh
 Primitive CutOff       TCut            ....  2.500e-12 Eh

Convergence Tolerance:
 Convergence Check Mode ConvCheckMode   .... Total+1el-Energy
 Convergence forced     ConvForced      .... 0
 Energy Change          TolE            ....  1.000e-08 Eh
 1-El. energy change                    ....  1.000e-05 Eh
 DIIS Error             TolErr          ....  5.000e-07


Diagonalization of the overlap matrix:
Smallest eigenvalue                        ... 4.137e-04
Time for diagonalization                   ...    0.031 sec
Threshold for overlap eigenvalues          ... 1.000e-08
Number of eigenvalues below threshold      ... 0
Time for construction of square roots      ...    0.022 sec
Total time needed                          ...    0.054 sec

--------------------------------
INITIAL GUESS: MINIMAL BASIS EHT
--------------------------------
The minimal basis has 147 functions
EHT matrix was diagonalized
Basis set overlap was calculated now projecting the orbitals
Using GuessMode=FMatrix for the initial guess
C*T matrix was formed
Effective Fockian was calculated
Effective Fockian was diagonalized
Initial density was built
                      ------------------
                      INITIAL GUESS DONE
                      ------------------
-------------------
DFT GRID GENERATION
-------------------

General Integration Accuracy     IntAcc      ... 4.159
Radial Grid Type                 RadialGrid  ... OptM3 with GC (2021)
Angular Grid (max. ang.)         AngularGrid ... 3 (Lebedev-194)
Angular grid pruning method      GridPruning ... 4 (adaptive)
Weight generation scheme         WeightScheme... Becke
Basis function cutoff            BFCut       ... 1.0000e-11
Integration weight cutoff        WCut        ... 1.0000e-14
Angular grids for H and He will be reduced by one unit
Partially contracted basis set               ... off
Rotationally invariant grid construction     ... off

Total number of grid points                  ...    96732
Total number of batches                      ...     1532
Average number of points per batch           ...       63
Average number of grid points per atom       ...     2546
Time for grid setup =    1.420 sec

--------------------
COSX GRID GENERATION
--------------------

GRIDX 1
-------
General Integration Accuracy     IntAcc      ... 3.816
Radial Grid Type                 RadialGrid  ... OptM3 with GC (2021)
Angular Grid (max. ang.)         AngularGrid ... 1 (Lebedev-50)
Angular grid pruning method      GridPruning ... 4 (adaptive)
Weight generation scheme         WeightScheme... Becke
Basis function cutoff            BFCut       ... 1.0000e-11
Integration weight cutoff        WCut        ... 1.0000e-14
Angular grids for H and He will be reduced by one unit
Partially contracted basis set               ... on
Rotationally invariant grid construction     ... off

Total number of grid points                  ...    23637
Total number of batches                      ...      386
Average number of points per batch           ...       61
Average number of grid points per atom       ...      622
UseSFitting                                  ... on

GRIDX 2
-------
General Integration Accuracy     IntAcc      ... 4.020
Radial Grid Type                 RadialGrid  ... OptM3 with GC (2021)
Angular Grid (max. ang.)         AngularGrid ... 2 (Lebedev-110)
Angular grid pruning method      GridPruning ... 4 (adaptive)
Weight generation scheme         WeightScheme... Becke
Basis function cutoff            BFCut       ... 1.0000e-11
Integration weight cutoff        WCut        ... 1.0000e-14
Angular grids for H and He will be reduced by one unit
Partially contracted basis set               ... on
Rotationally invariant grid construction     ... off

Total number of grid points                  ...    51258
Total number of batches                      ...      822
Average number of points per batch           ...       62
Average number of grid points per atom       ...     1349
UseSFitting                                  ... on

GRIDX 3
-------
General Integration Accuracy     IntAcc      ... 4.338
Radial Grid Type                 RadialGrid  ... OptM3 with GC (2021)
Angular Grid (max. ang.)         AngularGrid ... 3 (Lebedev-194)
Angular grid pruning method      GridPruning ... 4 (adaptive)
Weight generation scheme         WeightScheme... Becke
Basis function cutoff            BFCut       ... 1.0000e-11
Integration weight cutoff        WCut        ... 1.0000e-14
Angular grids for H and He will be reduced by one unit
Partially contracted basis set               ... on
Rotationally invariant grid construction     ... off

Total number of grid points                  ...   111816
Total number of batches                      ...     1768
Average number of points per batch           ...       63
Average number of grid points per atom       ...     2943
UseSFitting                                  ... on

Time for X-Grid setup             =    4.259 sec

--------------
SCF ITERATIONS
--------------
ITER       Energy         Delta-E        Max-DP      RMS-DP      [F,P]     Damp
               ***  Starting incremental Fock matrix formation  ***
  0  -3825.6332600474   0.000000000000 5.52523551  0.05758086  5.1831855 0.7000
  1  -3811.8344373697  13.798822677724 5.96090022  0.05192684  3.9814262 0.7000
  2  -3813.0615590368  -1.227121667082 2.09922710  0.02706623  2.6463410 0.7000
  3  -3818.4638783549  -5.402319318179 4.66628931  0.03310211  1.9394928 0.7000
  4  -3815.3835639781   3.080314376824 3.57730987  0.03166003  1.2716389 0.7000
  5  -3816.7140103561  -1.330446378012 3.36341723  0.03728340  0.9796092 0.7000
  6  -3808.1663428811   8.547667475046 2.60170352  0.03076698  0.6170191 0.7000
  7  -3815.1259204860  -6.959577604950 3.03420893  0.02887472  0.5120996 0.7000
  8  -3814.3122578527   0.813662633356 2.69284593  0.03114570  0.3723934 0.7000
  9  -3813.6977118174   0.614546035253 3.29866887  0.03582838  0.2802093 0.7000
 10  -3802.4767286671  11.220983150307 2.51863299  0.03199033  0.3862317 0.7000
 11  -3812.5179930717 -10.041264404561 2.93062845  0.02901518  0.2536482 0.7000
                               ***Turning on DIIS***
 12  -3813.7951988982  -1.277205826525 2.79775728  0.03096074  0.3760452 0.7000
 13  -3813.4921115934   0.303087304838 1.98341195  0.02147344  0.2252902 0.7000
 14  -3823.0540985993  -9.561987005959 1.39769874  0.01518619  0.2843506 0.7000
 15  -3830.5806581860  -7.526559586651 0.98181898  0.01074226  0.3314326 0.7000
 16  -3835.8997419466  -5.319083760609 0.68773411  0.00759359  0.3434559 0.7000
 17  -3839.5633160669  -3.663574120301 0.47681699  0.00537556  0.3072570 0.7000
 18  -3842.1609457883  -2.597629721458 0.33479196  0.00381640  0.1785144 0.7000
 19  -3843.8686589605  -1.707713172134 0.23443615  0.00271618  0.1107295 0.7000
               *** Restarting incremental Fock matrix formation ***
                                   *** Resetting DIIS ***
 20  -3845.0235727418  -1.154913781279 0.54360235  0.00635792  0.0701820 0.0000
 21  -3847.6236026778  -2.600029936093 0.04384775  0.00079031  0.0754409 0.0000
 22  -3847.6619009608  -0.038298282929 0.04938244  0.00068012  0.0202671 0.0000
 23  -3847.6703348613  -0.008433900569 0.01556735  0.00020193  0.0064816 0.0000
 24  -3847.6713050828  -0.000970221466 0.00711842  0.00010731  0.0045161 0.0000
 25  -3847.6716087459  -0.000303663065 0.00521660  0.00005369  0.0021738 0.0000
 26  -3847.6716860847  -0.000077338809 0.00195597  0.00003156  0.0014519 0.0000
 27  -3847.6717164130  -0.000030328322 0.00242664  0.00003250  0.0005477 0.0000
               *** Restarting incremental Fock matrix formation ***
                                   *** Resetting DIIS ***
 28  -3847.6728773603  -0.001160947287 0.00498881  0.00010180  0.0015825 0.0000
 29  -3847.6729094268  -0.000032066490 0.00332000  0.00003040  0.0003140 0.0000
 30  -3847.6729123477  -0.000002920949 0.00090573  0.00000709  0.0004680 0.0000
 31  -3847.6729137011  -0.000001353330 0.00046332  0.00000378  0.0002261 0.0000
 32  -3847.6729138892  -0.000000188128 0.00022738  0.00000192  0.0001508 0.0000
 33  -3847.6729139952  -0.000000105969 0.00010869  0.00000077  0.0000365 0.0000
 34  -3847.6729140049  -0.000000009783 0.00007746  0.00000047  0.0000189 0.0000
 35  -3847.6729140119  -0.000000007009 0.00004376  0.00000026  0.0000091 0.0000
 36  -3847.6729140013   0.000000010657 0.00002083  0.00000013  0.0000045 0.0000
 37  -3847.6729140064  -0.000000005062 0.00000819  0.00000006  0.0000027 0.0000
 38  -3847.6729139990   0.000000007368 0.00000661  0.00000006  0.0000037 0.0000
 39  -3847.6729140022  -0.000000003217 0.00000249  0.00000002  0.0000015 0.0000
                            ***DIIS convergence achieved***

               *****************************************************
               *                     SUCCESS                       *
               *           SCF CONVERGED AFTER  40 CYCLES          *
               *****************************************************

Old exchange energy                            =    -97.700040783 Eh
New exchange energy                            =    -97.700002186 Eh
Exchange energy change after final integration =      0.000038597 Eh
Total energy after final integration           =  -3847.672875402 Eh
Final COS-X integration done in                =    49.459 sec

----------------
TOTAL SCF ENERGY
----------------

Total Energy       :        -3847.67287540 Eh         -104700.50181 eV

Components:
Nuclear Repulsion  :         2545.02546580 Eh           69253.66371 eV
Electronic Energy  :        -6392.69834120 Eh         -173954.16552 eV
One Electron Energy:       -10474.29111926 Eh         -285019.95149 eV
Two Electron Energy:         4081.59277806 Eh          111065.78597 eV
Max COSX asymmetry :            0.00003618 Eh               0.00098 eV

Virial components:
Potential Energy   :        -7606.37093858 Eh         -206979.87589 eV
Kinetic Energy     :         3758.69806318 Eh          102279.37408 eV
Virial Ratio       :            2.02367171


DFT components:
N(Alpha)           :       99.999392543391 electrons
N(Beta)            :       99.999392543391 electrons
N(Total)           :      199.998785086781 electrons
E(X)               :     -130.783524342074 Eh       
E(C)               :       -9.710516490107 Eh       
E(XC)              :     -140.494040832181 Eh       
DFET-embed. en.    :        0.000000000000 Eh       

---------------
SCF CONVERGENCE
---------------

  Last Energy change         ...    2.6321e-09  Tolerance :   1.0000e-08
  Last MAX-Density change    ...    0.0000e+00  Tolerance :   1.0000e-07
  Last RMS-Density change    ...    0.0000e+00  Tolerance :   5.0000e-09
  Last DIIS Error            ...    7.2601e-07  Tolerance :   5.0000e-07

             **** THE GBW FILE WAS UPDATED (5_19_orca.gbw) ****
             **** DENSITY 5_19_orca.scfp WAS UPDATED ****
             **** ENERGY FILE WAS UPDATED (5_19_orca.en.tmp) ****
             **** THE GBW FILE WAS UPDATED (5_19_orca.gbw) ****
             **** DENSITY 5_19_orca.scfp WAS UPDATED ****
----------------
ORBITAL ENERGIES
----------------

  NO   OCC          E(Eh)            E(eV) 
   0   2.0000    -484.343053    -13179.6445 
   1   2.0000     -77.675331     -2113.6532 
   2   2.0000     -63.004496     -1714.4395 
   3   2.0000     -56.708094     -1543.1057 
   4   2.0000     -56.707275     -1543.0834 
   5   2.0000     -56.707016     -1543.0764 
   6   2.0000     -19.424385      -528.5644 
   7   2.0000     -19.398242      -527.8530 
   8   2.0000     -19.365280      -526.9561 
   9   2.0000     -10.513205      -286.0789 
  10   2.0000     -10.343210      -281.4530 
  11   2.0000     -10.340246      -281.3724 
  12   2.0000     -10.339622      -281.3554 
  13   2.0000     -10.336775      -281.2780 
  14   2.0000     -10.336097      -281.2595 
  15   2.0000     -10.335426      -281.2412 
  16   2.0000     -10.318446      -280.7792 
  17   2.0000     -10.317171      -280.7445 
  18   2.0000     -10.315408      -280.6965 
  19   2.0000     -10.315240      -280.6920 
  20   2.0000     -10.313005      -280.6311 
  21   2.0000     -10.312222      -280.6098 
  22   2.0000     -10.302042      -280.3328 
  23   2.0000     -10.299220      -280.2560 
  24   2.0000      -8.831804      -240.3256 
  25   2.0000      -6.750385      -183.6873 
  26   2.0000      -6.600990      -179.6221 
  27   2.0000      -6.597608      -179.5300 
  28   2.0000      -6.595453      -179.4714 
  29   2.0000      -4.841391      -131.7409 
  30   2.0000      -4.841172      -131.7350 
  31   2.0000      -4.839601      -131.6922 
  32   2.0000      -3.526803       -95.9692 
  33   2.0000      -2.615304       -71.1660 
  34   2.0000      -2.614758       -71.1512 
  35   2.0000      -2.612933       -71.1015 
  36   2.0000      -2.609974       -71.0210 
  37   2.0000      -2.609735       -71.0145 
  38   2.0000      -2.171581       -59.0917 
  39   2.0000      -2.168205       -58.9998 
  40   2.0000      -2.143542       -58.3287 
  41   2.0000      -1.123731       -30.5783 
  42   2.0000      -1.014058       -27.5939 
  43   2.0000      -0.996808       -27.1245 
  44   2.0000      -0.847821       -23.0704 
  45   2.0000      -0.808647       -22.0044 
  46   2.0000      -0.769199       -20.9310 
  47   2.0000      -0.721736       -19.6394 
  48   2.0000      -0.718001       -19.5378 
  49   2.0000      -0.683443       -18.5974 
  50   2.0000      -0.664552       -18.0834 
  51   2.0000      -0.661370       -17.9968 
  52   2.0000      -0.645523       -17.5656 
  53   2.0000      -0.599837       -16.3224 
  54   2.0000      -0.593756       -16.1569 
  55   2.0000      -0.567978       -15.4555 
  56   2.0000      -0.538288       -14.6476 
  57   2.0000      -0.529256       -14.4018 
  58   2.0000      -0.521015       -14.1775 
  59   2.0000      -0.500124       -13.6091 
  60   2.0000      -0.462290       -12.5795 
  61   2.0000      -0.439682       -11.9644 
  62   2.0000      -0.433417       -11.7939 
  63   2.0000      -0.422075       -11.4852 
  64   2.0000      -0.418625       -11.3914 
  65   2.0000      -0.402824       -10.9614 
  66   2.0000      -0.380727       -10.3601 
  67   2.0000      -0.375221       -10.2103 
  68   2.0000      -0.372431       -10.1344 
  69   2.0000      -0.370636       -10.0855 
  70   2.0000      -0.367855       -10.0098 
  71   2.0000      -0.362805        -9.8724 
  72   2.0000      -0.351282        -9.5589 
  73   2.0000      -0.337284        -9.1780 
  74   2.0000      -0.330271        -8.9871 
  75   2.0000      -0.323426        -8.8009 
  76   2.0000      -0.316802        -8.6206 
  77   2.0000      -0.311243        -8.4694 
  78   2.0000      -0.297351        -8.0913 
  79   2.0000      -0.288052        -7.8383 
  80   2.0000      -0.286884        -7.8065 
  81   2.0000      -0.277116        -7.5407 
  82   2.0000      -0.272432        -7.4133 
  83   2.0000      -0.265783        -7.2323 
  84   2.0000      -0.259435        -7.0596 
  85   2.0000      -0.257033        -6.9942 
  86   2.0000      -0.252723        -6.8769 
  87   2.0000      -0.238052        -6.4777 
  88   2.0000      -0.228846        -6.2272 
  89   2.0000      -0.223272        -6.0755 
  90   2.0000      -0.219521        -5.9735 
  91   2.0000      -0.188631        -5.1329 
  92   2.0000      -0.185672        -5.0524 
  93   2.0000      -0.174632        -4.7520 
  94   2.0000      -0.170759        -4.6466 
  95   2.0000      -0.164340        -4.4719 
  96   2.0000      -0.158167        -4.3039 
  97   2.0000      -0.144526        -3.9328 
  98   2.0000      -0.138837        -3.7780 
  99   2.0000      -0.110458        -3.0057 
 100   0.0000       0.068067         1.8522 
 101   0.0000       0.119536         3.2527 
 102   0.0000       0.130675         3.5558 
 103   0.0000       0.146982         3.9996 
 104   0.0000       0.155909         4.2425 
 105   0.0000       0.156682         4.2635 
 106   0.0000       0.165957         4.5159 
 107   0.0000       0.172108         4.6833 
 108   0.0000       0.183044         4.9809 
 109   0.0000       0.199210         5.4208 
 110   0.0000       0.208871         5.6837 
 111   0.0000       0.221166         6.0182 
 112   0.0000       0.243225         6.6185 
 113   0.0000       0.246777         6.7151 
 114   0.0000       0.262641         7.1468 
 115   0.0000       0.275549         7.4981 
 116   0.0000       0.280900         7.6437 
 117   0.0000       0.295778         8.0485 
 118   0.0000       0.304543         8.2870 
 119   0.0000       0.306201         8.3322 
 120   0.0000       0.314681         8.5629 
 121   0.0000       0.320568         8.7231 
 122   0.0000       0.324254         8.8234 
 123   0.0000       0.330743         9.0000 
 124   0.0000       0.341885         9.3032 
 125   0.0000       0.350829         9.5465 
 126   0.0000       0.360301         9.8043 
 127   0.0000       0.368729        10.0336 
 128   0.0000       0.374180        10.1819 
 129   0.0000       0.382963        10.4210 
 130   0.0000       0.393617        10.7109 
 131   0.0000       0.396973        10.8022 
 132   0.0000       0.403462        10.9788 
 133   0.0000       0.409251        11.1363 
 134   0.0000       0.419791        11.4231 
 135   0.0000       0.433393        11.7932 
 136   0.0000       0.439017        11.9463 
 137   0.0000       0.455323        12.3900 
 138   0.0000       0.467382        12.7181 
 139   0.0000       0.469544        12.7770 
 140   0.0000       0.485845        13.2205 
 141   0.0000       0.494778        13.4636 
 142   0.0000       0.502595        13.6763 
 143   0.0000       0.511187        13.9101 
 144   0.0000       0.520988        14.1768 
 145   0.0000       0.537829        14.6351 
 146   0.0000       0.552528        15.0350 
 147   0.0000       0.554698        15.0941 
 148   0.0000       0.579571        15.7709 
 149   0.0000       0.587485        15.9863 
 150   0.0000       0.598011        16.2727 
 151   0.0000       0.599106        16.3025 
 152   0.0000       0.612353        16.6630 
 153   0.0000       0.623784        16.9740 
 154   0.0000       0.638511        17.3748 
 155   0.0000       0.642532        17.4842 
 156   0.0000       0.646994        17.6056 
 157   0.0000       0.658263        17.9123 
 158   0.0000       0.665002        18.0956 
 159   0.0000       0.672624        18.3030 
 160   0.0000       0.677557        18.4373 
 161   0.0000       0.679968        18.5029 
 162   0.0000       0.690244        18.7825 
 163   0.0000       0.698021        18.9941 
 164   0.0000       0.704717        19.1763 
 165   0.0000       0.711004        19.3474 
 166   0.0000       0.715209        19.4618 
 167   0.0000       0.723275        19.6813 
 168   0.0000       0.727027        19.7834 
 169   0.0000       0.731137        19.8952 
 170   0.0000       0.737349        20.0643 
 171   0.0000       0.746189        20.3048 
 172   0.0000       0.747445        20.3390 
 173   0.0000       0.751275        20.4432 
 174   0.0000       0.752885        20.4870 
 175   0.0000       0.761220        20.7139 
 176   0.0000       0.766926        20.8691 
 177   0.0000       0.768271        20.9057 
 178   0.0000       0.780053        21.2263 
 179   0.0000       0.782748        21.2997 
 180   0.0000       0.791718        21.5437 
 181   0.0000       0.798502        21.7284 
 182   0.0000       0.804228        21.8842 
 183   0.0000       0.807524        21.9738 
 184   0.0000       0.811835        22.0911 
 185   0.0000       0.823996        22.4221 
 186   0.0000       0.832765        22.6607 
 187   0.0000       0.842180        22.9169 
 188   0.0000       0.844273        22.9738 
 189   0.0000       0.847147        23.0520 
 190   0.0000       0.860811        23.4239 
 191   0.0000       0.867978        23.6189 
 192   0.0000       0.876979        23.8638 
 193   0.0000       0.886538        24.1239 
 194   0.0000       0.891530        24.2598 
 195   0.0000       0.908784        24.7293 
 196   0.0000       0.910020        24.7629 
 197   0.0000       0.924708        25.1626 
 198   0.0000       0.935603        25.4591 
 199   0.0000       0.952689        25.9240 
 200   0.0000       0.963086        26.2069 
 201   0.0000       0.981471        26.7072 
 202   0.0000       0.985528        26.8176 
 203   0.0000       0.986816        26.8526 
 204   0.0000       1.010323        27.4923 
 205   0.0000       1.018755        27.7217 
 206   0.0000       1.029526        28.0148 
 207   0.0000       1.040212        28.3056 
 208   0.0000       1.042465        28.3669 
 209   0.0000       1.061162        28.8757 
 210   0.0000       1.067845        29.0575 
 211   0.0000       1.080025        29.3890 
 212   0.0000       1.083482        29.4831 
 213   0.0000       1.087408        29.5899 
 214   0.0000       1.092961        29.7410 
 215   0.0000       1.103657        30.0320 
 216   0.0000       1.113091        30.2888 
 217   0.0000       1.119133        30.4532 
 218   0.0000       1.125578        30.6285 
 219   0.0000       1.133631        30.8477 
 220   0.0000       1.147548        31.2264 
 221   0.0000       1.156099        31.4590 
 222   0.0000       1.163218        31.6528 
 223   0.0000       1.168871        31.8066 
 224   0.0000       1.177352        32.0374 
 225   0.0000       1.186158        32.2770 
 226   0.0000       1.192429        32.4476 
 227   0.0000       1.202075        32.7101 
 228   0.0000       1.206413        32.8282 
 229   0.0000       1.220360        33.2077 
 230   0.0000       1.222904        33.2769 
 231   0.0000       1.232803        33.5463 
 232   0.0000       1.235736        33.6261 
 233   0.0000       1.236751        33.6537 
 234   0.0000       1.255159        34.1546 
 235   0.0000       1.261499        34.3271 
 236   0.0000       1.269812        34.5533 
 237   0.0000       1.286822        35.0162 
 238   0.0000       1.293753        35.2048 
 239   0.0000       1.297742        35.3134 
 240   0.0000       1.322350        35.9830 
 241   0.0000       1.329020        36.1645 
 242   0.0000       1.329443        36.1760 
 243   0.0000       1.342514        36.5317 
 244   0.0000       1.362504        37.0756 
 245   0.0000       1.383085        37.6357 
 246   0.0000       1.391716        37.8705 
 247   0.0000       1.412798        38.4442 
 248   0.0000       1.422934        38.7200 
 249   0.0000       1.429153        38.8892 
 250   0.0000       1.440738        39.2045 
 251   0.0000       1.443234        39.2724 
 252   0.0000       1.451744        39.5040 
 253   0.0000       1.469358        39.9833 
 254   0.0000       1.471896        40.0523 
 255   0.0000       1.493931        40.6519 
 256   0.0000       1.501770        40.8652 
 257   0.0000       1.543815        42.0093 
 258   0.0000       1.551843        42.2278 
 259   0.0000       1.573789        42.8250 
 260   0.0000       1.606765        43.7223 
 261   0.0000       1.627535        44.2875 
 262   0.0000       1.651922        44.9511 
 263   0.0000       1.667971        45.3878 
 264   0.0000       1.680693        45.7340 
 265   0.0000       1.687933        45.9310 
 266   0.0000       1.696916        46.1754 
 267   0.0000       1.715561        46.6828 
 268   0.0000       1.724985        46.9392 
 269   0.0000       1.731613        47.1196 
 270   0.0000       1.743747        47.4498 
 271   0.0000       1.771001        48.1914 
 272   0.0000       1.778159        48.3862 
 273   0.0000       1.803099        49.0648 
 274   0.0000       1.816716        49.4354 
 275   0.0000       1.884904        51.2908 
 276   0.0000       1.907589        51.9081 
 277   0.0000       1.930518        52.5321 
 278   0.0000       1.947617        52.9973 
 279   0.0000       1.969945        53.6049 
 280   0.0000       1.980011        53.8788 
 281   0.0000       1.990309        54.1591 
 282   0.0000       1.998104        54.3712 
 283   0.0000       2.001646        54.4676 
 284   0.0000       2.036993        55.4294 
 285   0.0000       2.041575        55.5541 
 286   0.0000       2.060619        56.0723 
 287   0.0000       2.065213        56.1973 
 288   0.0000       2.083229        56.6875 
 289   0.0000       2.092928        56.9515 
 290   0.0000       2.101003        57.1712 
 291   0.0000       2.105668        57.2981 
 292   0.0000       2.128874        57.9296 
 293   0.0000       2.133991        58.0689 
 294   0.0000       2.146239        58.4021 
 295   0.0000       2.167531        58.9815 
 296   0.0000       2.173524        59.1446 
 297   0.0000       2.190263        59.6001 
 298   0.0000       2.213408        60.2299 
 299   0.0000       2.226879        60.5965 
 300   0.0000       2.232205        60.7414 
 301   0.0000       2.250861        61.2490 
 302   0.0000       2.291796        62.3629 
 303   0.0000       2.313732        62.9599 
 304   0.0000       2.320506        63.1442 
 305   0.0000       2.321343        63.1670 
 306   0.0000       2.326056        63.2952 
 307   0.0000       2.336806        63.5877 
 308   0.0000       2.344410        63.7947 
 309   0.0000       2.358104        64.1673 
 310   0.0000       2.370351        64.5005 
 311   0.0000       2.402802        65.3836 
 312   0.0000       2.406498        65.4841 
 313   0.0000       2.422452        65.9183 
 314   0.0000       2.433955        66.2313 
 315   0.0000       2.469051        67.1863 
 316   0.0000       2.490329        67.7653 
 317   0.0000       2.494757        67.8858 
 318   0.0000       2.511255        68.3347 
 319   0.0000       2.522435        68.6389 
 320   0.0000       2.545407        69.2641 
 321   0.0000       2.564026        69.7707 
 322   0.0000       2.578762        70.1717 
 323   0.0000       2.587308        70.4042 
 324   0.0000       2.592755        70.5524 
 325   0.0000       2.603477        70.8442 
 326   0.0000       2.611258        71.0559 
 327   0.0000       2.632298        71.6285 
 328   0.0000       2.636715        71.7487 
 329   0.0000       2.657786        72.3220 
 330   0.0000       2.665290        72.5262 
 331   0.0000       2.668600        72.6163 
 332   0.0000       2.720568        74.0304 
 333   0.0000       2.730029        74.2879 
 334   0.0000       2.750485        74.8445 
 335   0.0000       2.770719        75.3951 
 336   0.0000       2.787333        75.8472 
 337   0.0000       2.792979        76.0008 
 338   0.0000       2.829086        76.9834 
 339   0.0000       2.842625        77.3518 
 340   0.0000       2.847984        77.4976 
 341   0.0000       2.856015        77.7161 
 342   0.0000       2.868527        78.0566 
 343   0.0000       2.893396        78.7333 
 344   0.0000       2.905832        79.0717 
 345   0.0000       2.907886        79.1276 
 346   0.0000       2.915402        79.3321 
 347   0.0000       2.952347        80.3375 
 348   0.0000       2.967872        80.7599 
 349   0.0000       2.976498        80.9946 
 350   0.0000       2.987579        81.2962 
 351   0.0000       3.009917        81.9040 
 352   0.0000       3.049168        82.9721 
 353   0.0000       3.051916        83.0468 
 354   0.0000       3.134536        85.2951 
 355   0.0000       3.227854        87.8344 
 356   0.0000       3.257685        88.6461 
 357   0.0000       3.282913        89.3326 
 358   0.0000       3.311779        90.1181 
 359   0.0000       3.535444        96.2043 
 360   0.0000       3.567359        97.0728 
 361   0.0000       3.736059       101.6633 
 362   0.0000       3.755153       102.1829 
 363   0.0000       3.791564       103.1737 
 364   0.0000       3.811419       103.7140 
 365   0.0000       4.014780       109.2477 
 366   0.0000      13.400368       364.6426 
 367   0.0000      13.425244       365.3195 
 368   0.0000      13.770931       374.7261 
 369   0.0000      13.799863       375.5134 
 370   0.0000      13.826070       376.2265 
 371   0.0000      13.837363       376.5338 
 372   0.0000      14.030493       381.7891 
 373   0.0000      14.086836       383.3223 
 374   0.0000      14.201295       386.4369 
 375   0.0000      14.247842       387.7035 
 376   0.0000      14.249123       387.7384 
 377   0.0000      14.257983       387.9794 
 378   0.0000      14.318137       389.6163 
 379   0.0000      14.611554       397.6006 
 380   0.0000      14.665122       399.0583 
 381   0.0000      25.639866       697.6962 
 382   0.0000      25.747494       700.6249 
 383   0.0000      25.870883       703.9825 
 384   0.0000      51.756522      1408.3666 

                    ********************************
                    * MULLIKEN POPULATION ANALYSIS *
                    ********************************

-----------------------
MULLIKEN ATOMIC CHARGES
-----------------------
   0 C :   -0.111593
   1 C :    0.048971
   2 C :   -0.332686
   3 C :   -0.215493
   4 C :   -0.235125
   5 C :   -0.256376
   6 H :    0.482347
   7 H :    0.212660
   8 H :    0.164412
   9 H :    0.168638
  10 H :    0.166499
  11 C :   -0.467347
  12 C :   -0.519215
  13 H :    0.186868
  14 H :    0.244585
  15 C :    0.115261
  16 H :    0.282571
  17 H :    0.199259
  18 C :   -0.101450
  19 C :   -0.317146
  20 C :   -0.225207
  21 C :   -0.269678
  22 C :   -0.227706
  23 H :    0.235105
  24 H :    0.184458
  25 H :    0.179496
  26 H :    0.182644
  27 Pd:    0.020890
  28 Br:   -0.475845
  29 P :   -0.132762
  30 H :    0.122075
  31 C :    0.740208
  32 O :   -0.456047
  33 O :   -0.634678
  34 O :   -0.599785
  35 H :    0.095492
  36 H :    0.117698
  37 H :    0.427999
Sum of atomic charges:   -1.0000000

--------------------------------
MULLIKEN REDUCED ORBITAL CHARGES
--------------------------------
  0 C s       :     3.345313  s :     3.345313
      pz      :     0.865257  p :     2.731150
      px      :     0.985631
      py      :     0.880261
      dz2     :     0.005148  d :     0.035130
      dxz     :     0.004846
      dyz     :     0.006364
      dx2y2   :     0.013115
      dxy     :     0.005657
  1 C s       :     3.194255  s :     3.194255
      pz      :     0.950290  p :     2.710989
      px      :     0.881895
      py      :     0.878803
      dz2     :     0.005299  d :     0.045786
      dxz     :     0.008427
      dyz     :     0.006184
      dx2y2   :     0.011217
      dxy     :     0.014659
  2 C s       :     3.287534  s :     3.287534
      pz      :     0.998551  p :     3.004649
      px      :     0.953005
      py      :     1.053092
      dz2     :     0.003391  d :     0.040503
      dxz     :     0.007837
      dyz     :     0.004609
      dx2y2   :     0.011630
      dxy     :     0.013035
  3 C s       :     3.232407  s :     3.232407
      pz      :     1.022831  p :     2.943672
      px      :     0.985057
      py      :     0.935784
      dz2     :     0.005495  d :     0.039413
      dxz     :     0.003750
      dyz     :     0.006302
      dx2y2   :     0.013778
      dxy     :     0.010088
  4 C s       :     3.234389  s :     3.234389
      pz      :     1.016466  p :     2.960464
      px      :     0.969847
      py      :     0.974151
      dz2     :     0.004091  d :     0.040272
      dxz     :     0.006845
      dyz     :     0.005484
      dx2y2   :     0.010180
      dxy     :     0.013672
  5 C s       :     3.248383  s :     3.248383
      pz      :     1.041569  p :     2.968762
      px      :     0.928583
      py      :     0.998611
      dz2     :     0.003159  d :     0.039232
      dxz     :     0.007921
      dyz     :     0.005679
      dx2y2   :     0.012140
      dxy     :     0.010332
  6 H s       :     0.517653  s :     0.517653
  7 H s       :     0.787340  s :     0.787340
  8 H s       :     0.835588  s :     0.835588
  9 H s       :     0.831362  s :     0.831362
 10 H s       :     0.833501  s :     0.833501
 11 C s       :     3.354212  s :     3.354212
      pz      :     1.102427  p :     3.070246
      px      :     0.939030
      py      :     1.028789
      dz2     :     0.005813  d :     0.042889
      dxz     :     0.006354
      dyz     :     0.012858
      dx2y2   :     0.008202
      dxy     :     0.009662
 12 C s       :     3.377390  s :     3.377390
      pz      :     1.020994  p :     3.098813
      px      :     0.973991
      py      :     1.103828
      dz2     :     0.010333  d :     0.043012
      dxz     :     0.011458
      dyz     :     0.003700
      dx2y2   :     0.007897
      dxy     :     0.009623
 13 H s       :     0.813132  s :     0.813132
 14 H s       :     0.755415  s :     0.755415
 15 C s       :     3.169016  s :     3.169016
      pz      :     0.865810  p :     2.668258
      px      :     0.913883
      py      :     0.888564
      dz2     :     0.011548  d :     0.047465
      dxz     :     0.012594
      dyz     :     0.007649
      dx2y2   :     0.007528
      dxy     :     0.008146
 16 H s       :     0.717429  s :     0.717429
 17 H s       :     0.800741  s :     0.800741
 18 C s       :     3.315556  s :     3.315556
      pz      :     0.869576  p :     2.744899
      px      :     0.932418
      py      :     0.942905
      dz2     :     0.008662  d :     0.040995
      dxz     :     0.011115
      dyz     :     0.008811
      dx2y2   :     0.007804
      dxy     :     0.004603
 19 C s       :     3.280142  s :     3.280142
      pz      :     1.078297  p :     2.996794
      px      :     0.933561
      py      :     0.984936
      dz2     :     0.009910  d :     0.040210
      dxz     :     0.007371
      dyz     :     0.008531
      dx2y2   :     0.007287
      dxy     :     0.007110
 20 C s       :     3.235432  s :     3.235432
      pz      :     0.974701  p :     2.949447
      px      :     0.995549
      py      :     0.979198
      dz2     :     0.008311  d :     0.040328
      dxz     :     0.012530
      dyz     :     0.007130
      dx2y2   :     0.006890
      dxy     :     0.005467
 21 C s       :     3.265667  s :     3.265667
      pz      :     1.007505  p :     2.963750
      px      :     0.951837
      py      :     1.004408
      dz2     :     0.010296  d :     0.040261
      dxz     :     0.008898
      dyz     :     0.007648
      dx2y2   :     0.006938
      dxy     :     0.006481
 22 C s       :     3.232899  s :     3.232899
      pz      :     0.930432  p :     2.954070
      px      :     1.014489
      py      :     1.009150
      dz2     :     0.011399  d :     0.040737
      dxz     :     0.009402
      dyz     :     0.008108
      dx2y2   :     0.003441
      dxy     :     0.008387
 23 H s       :     0.764895  s :     0.764895
 24 H s       :     0.815542  s :     0.815542
 25 H s       :     0.820504  s :     0.820504
 26 H s       :     0.817356  s :     0.817356
 27 Pds       :     2.603586  s :     2.603586
      pz      :     2.084405  p :     6.339492
      px      :     2.131783
      py      :     2.123304
      dz2     :     1.945581  d :     9.033458
      dxz     :     1.944531
      dyz     :     1.961573
      dx2y2   :     1.940782
      dxy     :     1.240991
      f0      :     0.000186  f :     0.002574
      f+1     :     0.000336
      f-1     :     0.000323
      f+2     :     0.000047
      f-2     :     0.000223
      f+3     :     0.000604
      f-3     :     0.000855
 28 Brs       :     7.959760  s :     7.959760
      pz      :     5.902866  p :    17.501622
      px      :     5.829224
      py      :     5.769532
      dz2     :     2.001943  d :    10.014462
      dxz     :     2.001649
      dyz     :     2.003489
      dx2y2   :     2.003742
      dxy     :     2.003641
 29 P s       :     5.596468  s :     5.596468
      pz      :     3.052737  p :     9.332456
      px      :     3.077744
      py      :     3.201975
      dz2     :     0.033048  d :     0.203838
      dxz     :     0.023505
      dyz     :     0.058986
      dx2y2   :     0.068586
      dxy     :     0.019712
 30 H s       :     0.877925  s :     0.877925
 31 C s       :     2.800262  s :     2.800262
      pz      :     0.752639  p :     2.282370
      px      :     0.798581
      py      :     0.731149
      dz2     :     0.018936  d :     0.177160
      dxz     :     0.034498
      dyz     :     0.023020
      dx2y2   :     0.055187
      dxy     :     0.045519
 32 O s       :     3.757249  s :     3.757249
      pz      :     1.571621  p :     4.668361
      px      :     1.398499
      py      :     1.698241
      dz2     :     0.003421  d :     0.030437
      dxz     :     0.008159
      dyz     :     0.002443
      dx2y2   :     0.008881
      dxy     :     0.007534
 33 O s       :     3.792690  s :     3.792690
      pz      :     1.550554  p :     4.822767
      px      :     1.533664
      py      :     1.738549
      dz2     :     0.003248  d :     0.019220
      dxz     :     0.004396
      dyz     :     0.003527
      dx2y2   :     0.002407
      dxy     :     0.005642
 34 O s       :     3.806249  s :     3.806249
      pz      :     1.692511  p :     4.764364
      px      :     1.631990
      py      :     1.439863
      dz2     :     0.002429  d :     0.029172
      dxz     :     0.007606
      dyz     :     0.003617
      dx2y2   :     0.008984
      dxy     :     0.006536
 35 H s       :     0.904508  s :     0.904508
 36 H s       :     0.882302  s :     0.882302
 37 H s       :     0.572001  s :     0.572001


                     *******************************
                     * LOEWDIN POPULATION ANALYSIS *
                     *******************************

----------------------
LOEWDIN ATOMIC CHARGES
----------------------
   0 C :   -0.131565
   1 C :   -0.057461
   2 C :   -0.143285
   3 C :   -0.173607
   4 C :   -0.170049
   5 C :   -0.169354
   6 H :    0.390166
   7 H :    0.129223
   8 H :    0.112740
   9 H :    0.113553
  10 H :    0.110915
  11 C :   -0.210639
  12 C :   -0.214163
  13 H :    0.115030
  14 H :    0.141249
  15 C :   -0.035605
  16 H :    0.169015
  17 H :    0.116204
  18 C :   -0.024636
  19 C :   -0.137041
  20 C :   -0.157876
  21 C :   -0.147692
  22 C :   -0.161156
  23 H :    0.146037
  24 H :    0.120778
  25 H :    0.121607
  26 H :    0.119705
  27 Pd:   -0.859400
  28 Br:   -0.255455
  29 P :    0.410374
  30 H :    0.060191
  31 C :    0.168682
  32 O :   -0.263450
  33 O :   -0.330439
  34 O :   -0.321348
  35 H :    0.038542
  36 H :    0.052766
  37 H :    0.327447

-------------------------------
LOEWDIN REDUCED ORBITAL CHARGES
-------------------------------
  0 C s       :     2.970917  s :     2.970917
      pz      :     0.924202  p :     3.084404
      px      :     1.118634
      py      :     1.041569
      dz2     :     0.009543  d :     0.076244
      dxz     :     0.009687
      dyz     :     0.013251
      dx2y2   :     0.029208
      dxy     :     0.014554
  1 C s       :     2.858665  s :     2.858665
      pz      :     0.995755  p :     3.089666
      px      :     1.025882
      py      :     1.068028
      dz2     :     0.010460  d :     0.109131
      dxz     :     0.019053
      dyz     :     0.014025
      dx2y2   :     0.028754
      dxy     :     0.036839
  2 C s       :     2.898925  s :     2.898925
      pz      :     0.994524  p :     3.154522
      px      :     1.096197
      py      :     1.063802
      dz2     :     0.006422  d :     0.089838
      dxz     :     0.016860
      dyz     :     0.007674
      dx2y2   :     0.027964
      dxy     :     0.030918
  3 C s       :     2.899032  s :     2.899032
      pz      :     1.042287  p :     3.185031
      px      :     1.063633
      py      :     1.079111
      dz2     :     0.009837  d :     0.089545
      dxz     :     0.008085
      dyz     :     0.014683
      dx2y2   :     0.031976
      dxy     :     0.024964
  4 C s       :     2.892993  s :     2.892993
      pz      :     1.029547  p :     3.185138
      px      :     1.081736
      py      :     1.073855
      dz2     :     0.007830  d :     0.091918
      dxz     :     0.014519
      dyz     :     0.011254
      dx2y2   :     0.026428
      dxy     :     0.031887
  5 C s       :     2.897089  s :     2.897089
      pz      :     1.042288  p :     3.182963
      px      :     1.086322
      py      :     1.054353
      dz2     :     0.006356  d :     0.089302
      dxz     :     0.017795
      dyz     :     0.009638
      dx2y2   :     0.029563
      dxy     :     0.025950
  6 H s       :     0.609834  s :     0.609834
  7 H s       :     0.870777  s :     0.870777
  8 H s       :     0.887260  s :     0.887260
  9 H s       :     0.886447  s :     0.886447
 10 H s       :     0.889085  s :     0.889085
 11 C s       :     2.912012  s :     2.912012
      pz      :     1.093320  p :     3.212800
      px      :     1.047721
      py      :     1.071759
      dz2     :     0.011265  d :     0.085828
      dxz     :     0.012123
      dyz     :     0.022700
      dx2y2   :     0.017738
      dxy     :     0.022002
 12 C s       :     2.897128  s :     2.897128
      pz      :     1.070676  p :     3.229552
      px      :     1.053252
      py      :     1.105624
      dz2     :     0.020512  d :     0.087483
      dxz     :     0.023955
      dyz     :     0.007012
      dx2y2   :     0.015467
      dxy     :     0.020538
 13 H s       :     0.884970  s :     0.884970
 14 H s       :     0.858751  s :     0.858751
 15 C s       :     2.837609  s :     2.837609
      pz      :     1.060530  p :     3.082755
      px      :     1.028143
      py      :     0.994082
      dz2     :     0.027588  d :     0.115240
      dxz     :     0.031758
      dyz     :     0.019629
      dx2y2   :     0.016492
      dxy     :     0.019772
 16 H s       :     0.830985  s :     0.830985
 17 H s       :     0.883796  s :     0.883796
 18 C s       :     2.887294  s :     2.887294
      pz      :     1.044459  p :     3.043642
      px      :     1.034642
      py      :     0.964541
      dz2     :     0.022362  d :     0.093700
      dxz     :     0.026398
      dyz     :     0.020312
      dx2y2   :     0.014805
      dxy     :     0.009823
 19 C s       :     2.885310  s :     2.885310
      pz      :     1.073427  p :     3.161197
      px      :     1.052667
      py      :     1.035103
      dz2     :     0.021451  d :     0.090535
      dxz     :     0.018655
      dyz     :     0.016732
      dx2y2   :     0.016179
      dxy     :     0.017518
 20 C s       :     2.889160  s :     2.889160
      pz      :     1.071045  p :     3.176619
      px      :     1.055022
      py      :     1.050552
      dz2     :     0.020300  d :     0.092097
      dxz     :     0.026917
      dyz     :     0.017515
      dx2y2   :     0.014300
      dxy     :     0.013063
 21 C s       :     2.885029  s :     2.885029
      pz      :     1.065473  p :     3.169975
      px      :     1.063980
      py      :     1.040522
      dz2     :     0.022675  d :     0.092687
      dxz     :     0.022719
      dyz     :     0.015834
      dx2y2   :     0.015828
      dxy     :     0.015631
 22 C s       :     2.885704  s :     2.885704
      pz      :     1.090597  p :     3.181991
      px      :     1.055581
      py      :     1.035813
      dz2     :     0.028181  d :     0.093461
      dxz     :     0.023796
      dyz     :     0.019403
      dx2y2   :     0.006900
      dxy     :     0.015182
 23 H s       :     0.853963  s :     0.853963
 24 H s       :     0.879222  s :     0.879222
 25 H s       :     0.878393  s :     0.878393
 26 H s       :     0.880295  s :     0.880295
 27 Pds       :     2.588136  s :     2.588136
      pz      :     2.172850  p :     6.929747
      px      :     2.393030
      py      :     2.363866
      dz2     :     1.994310  d :     9.338154
      dxz     :     1.980313
      dyz     :     1.996475
      dx2y2   :     1.982069
      dxy     :     1.384987
      f0      :     0.000217  f :     0.003364
      f+1     :     0.000448
      f-1     :     0.000438
      f+2     :     0.000059
      f-2     :     0.000261
      f+3     :     0.000797
      f-3     :     0.001145
 28 Brs       :     7.833727  s :     7.833727
      pz      :     5.871569  p :    17.404909
      px      :     5.796600
      py      :     5.736739
      dz2     :     2.002485  d :    10.016819
      dxz     :     2.001843
      dyz     :     2.003331
      dx2y2   :     2.004287
      dxy     :     2.004873
 29 P s       :     5.238303  s :     5.238303
      pz      :     2.996422  p :     9.105156
      px      :     3.013751
      py      :     3.094983
      dz2     :     0.040745  d :     0.246167
      dxz     :     0.026364
      dyz     :     0.070345
      dx2y2   :     0.081594
      dxy     :     0.027119
 30 H s       :     0.939809  s :     0.939809
 31 C s       :     2.779588  s :     2.779588
      pz      :     0.804450  p :     2.663842
      px      :     0.978554
      py      :     0.880837
      dz2     :     0.040866  d :     0.387888
      dxz     :     0.075261
      dyz     :     0.049376
      dx2y2   :     0.121233
      dxy     :     0.101152
 32 O s       :     3.509378  s :     3.509378
      pz      :     1.550369  p :     4.698401
      px      :     1.471418
      py      :     1.676615
      dz2     :     0.007075  d :     0.055671
      dxz     :     0.013179
      dyz     :     0.003414
      dx2y2   :     0.016241
      dxy     :     0.015761
 33 O s       :     3.484772  s :     3.484772
      pz      :     1.528559  p :     4.806430
      px      :     1.546501
      py      :     1.731370
      dz2     :     0.006527  d :     0.039237
      dxz     :     0.009985
      dyz     :     0.006588
      dx2y2   :     0.005245
      dxy     :     0.010892
 34 O s       :     3.510329  s :     3.510329
      pz      :     1.674855  p :     4.760477
      px      :     1.619142
      py      :     1.466480
      dz2     :     0.004510  d :     0.050542
      dxz     :     0.010254
      dyz     :     0.008108
      dx2y2   :     0.015248
      dxy     :     0.012422
 35 H s       :     0.961458  s :     0.961458
 36 H s       :     0.947234  s :     0.947234
 37 H s       :     0.672553  s :     0.672553


                      *****************************
                      * MAYER POPULATION ANALYSIS *
                      *****************************

  NA   - Mulliken gross atomic population
  ZA   - Total nuclear charge
  QA   - Mulliken gross atomic charge
  VA   - Mayer's total valence
  BVA  - Mayer's bonded valence
  FA   - Mayer's free valence

  ATOM       NA         ZA         QA         VA         BVA        FA
  0 C      6.1116     6.0000    -0.1116     3.5536     3.5536    -0.0000
  1 C      5.9510     6.0000     0.0490     3.7708     3.7708     0.0000
  2 C      6.3327     6.0000    -0.3327     3.8908     3.8908    -0.0000
  3 C      6.2155     6.0000    -0.2155     3.7965     3.7965    -0.0000
  4 C      6.2351     6.0000    -0.2351     3.8660     3.8660     0.0000
  5 C      6.2564     6.0000    -0.2564     3.8106     3.8106     0.0000
  6 H      0.5177     1.0000     0.4823     0.7815     0.7815    -0.0000
  7 H      0.7873     1.0000     0.2127     0.9185     0.9185    -0.0000
  8 H      0.8356     1.0000     0.1644     0.9315     0.9315     0.0000
  9 H      0.8314     1.0000     0.1686     0.9268     0.9268    -0.0000
 10 H      0.8335     1.0000     0.1665     0.9261     0.9261    -0.0000
 11 C      6.4673     6.0000    -0.4673     3.6733     3.6733     0.0000
 12 C      6.5192     6.0000    -0.5192     3.6732     3.6732    -0.0000
 13 H      0.8131     1.0000     0.1869     0.9185     0.9185    -0.0000
 14 H      0.7554     1.0000     0.2446     0.8936     0.8936    -0.0000
 15 C      5.8847     6.0000     0.1153     3.7156     3.7156    -0.0000
 16 H      0.7174     1.0000     0.2826     0.8869     0.8869    -0.0000
 17 H      0.8007     1.0000     0.1993     0.9129     0.9129    -0.0000
 18 C      6.1014     6.0000    -0.1014     3.7442     3.7442    -0.0000
 19 C      6.3171     6.0000    -0.3171     3.8086     3.8086     0.0000
 20 C      6.2252     6.0000    -0.2252     3.8196     3.8196     0.0000
 21 C      6.2697     6.0000    -0.2697     3.8172     3.8172    -0.0000
 22 C      6.2277     6.0000    -0.2277     3.8396     3.8396     0.0000
 23 H      0.7649     1.0000     0.2351     0.9221     0.9221    -0.0000
 24 H      0.8155     1.0000     0.1845     0.9221     0.9221    -0.0000
 25 H      0.8205     1.0000     0.1795     0.9269     0.9269     0.0000
 26 H      0.8174     1.0000     0.1826     0.9217     0.9217     0.0000
 27 Pd    17.9791    18.0000     0.0209     2.8466     2.8466     0.0000
 28 Br    35.4758    35.0000    -0.4758     0.9059     0.9059     0.0000
 29 P     15.1328    15.0000    -0.1328     3.6607     3.6607     0.0000
 30 H      0.8779     1.0000     0.1221     0.9560     0.9560    -0.0000
 31 C      5.2598     6.0000     0.7402     4.2404     4.2404    -0.0000
 32 O      8.4560     8.0000    -0.4560     2.1448     2.1448    -0.0000
 33 O      8.6347     8.0000    -0.6347     1.9112     1.9112    -0.0000
 34 O      8.5998     8.0000    -0.5998     1.9687     1.9687     0.0000
 35 H      0.9045     1.0000     0.0955     0.9594     0.9594     0.0000
 36 H      0.8823     1.0000     0.1177     0.9563     0.9563    -0.0000
 37 H      0.5720     1.0000     0.4280     0.8066     0.8066    -0.0000

  Mayer bond orders larger than 0.100000
B(  0-C ,  1-C ) :   1.3880 B(  0-C ,  2-C ) :   1.4234 B(  0-C , 27-Pd) :   0.5757 
B(  1-C ,  5-C ) :   1.3718 B(  1-C , 11-C ) :   0.9500 B(  2-C ,  3-C ) :   1.4122 
B(  2-C ,  7-H ) :   0.9059 B(  3-C ,  4-C ) :   1.4211 B(  3-C ,  9-H ) :   0.9305 
B(  4-C ,  5-C ) :   1.4508 B(  4-C , 10-H ) :   0.9296 B(  5-C ,  8-H ) :   0.9270 
B(  6-H , 28-Br) :   0.1984 B(  6-H , 33-O ) :   0.5106 B( 11-C , 12-C ) :   0.9232 
B( 11-C , 13-H ) :   0.9379 B( 11-C , 14-H ) :   0.9032 B( 12-C , 15-C ) :   0.9689 
B( 12-C , 16-H ) :   0.8771 B( 12-C , 17-H ) :   0.9312 B( 15-C , 18-C ) :   1.3409 
B( 15-C , 21-C ) :   1.4036 B( 18-C , 19-C ) :   1.3975 B( 18-C , 27-Pd) :   0.7658 
B( 18-C , 28-Br) :   0.1124 B( 19-C , 20-C ) :   1.4131 B( 19-C , 23-H ) :   0.8953 
B( 20-C , 22-C ) :   1.4338 B( 20-C , 24-H ) :   0.9277 B( 21-C , 22-C ) :   1.4275 
B( 21-C , 25-H ) :   0.9266 B( 22-C , 26-H ) :   0.9277 B( 27-Pd, 28-Br) :   0.4433 
B( 27-Pd, 29-P ) :   0.6696 B( 29-P , 30-H ) :   0.9318 B( 29-P , 35-H ) :   0.9188 
B( 29-P , 36-H ) :   0.9226 B( 31-C , 32-O ) :   1.9258 B( 31-C , 33-O ) :   1.1848 
B( 31-C , 34-O ) :   1.0846 B( 34-O , 37-H ) :   0.7710 


------------------
HIRSHFELD ANALYSIS
------------------

Total integrated alpha density =     99.999392543
Total integrated beta density  =     99.999392543

  ATOM     CHARGE      SPIN    
   0 C   -0.198267    0.000000
   1 C   -0.032783    0.000000
   2 C   -0.076511    0.000000
   3 C   -0.079833    0.000000
   4 C   -0.083188    0.000000
   5 C   -0.081303    0.000000
   6 H    0.149667    0.000000
   7 H    0.007293    0.000000
   8 H    0.019254    0.000000
   9 H    0.021374    0.000000
  10 H    0.020426    0.000000
  11 C   -0.053048    0.000000
  12 C   -0.064833    0.000000
  13 H    0.011654    0.000000
  14 H    0.017997    0.000000
  15 C   -0.021749    0.000000
  16 H    0.003309    0.000000
  17 H    0.014447    0.000000
  18 C   -0.120252    0.000000
  19 C   -0.071181    0.000000
  20 C   -0.069760    0.000000
  21 C   -0.065039    0.000000
  22 C   -0.072765    0.000000
  23 H    0.023583    0.000000
  24 H    0.027485    0.000000
  25 H    0.026598    0.000000
  26 H    0.028323    0.000000
  27 Pd   0.392459    0.000000
  28 Br  -0.432424    0.000000
  29 P    0.116020    0.000000
  30 H    0.003649    0.000000
  31 C    0.289420    0.000000
  32 O   -0.349940    0.000000
  33 O   -0.261388    0.000000
  34 O   -0.234160    0.000000
  35 H   -0.001518    0.000000
  36 H    0.011935    0.000000
  37 H    0.186264    0.000000

  TOTAL  -0.998785    0.000000

-------
TIMINGS
-------

Total SCF time: 0 days 0 hours 11 min 37 sec 

Total time                  ....     697.277 sec
Sum of individual times     ....     696.753 sec  ( 99.9%)

Fock matrix formation       ....     686.247 sec  ( 98.4%)
  Split-RI-J                ....      73.308 sec  ( 10.7% of F)
  Chain of spheres X        ....     563.285 sec  ( 82.1% of F)
  XC integration            ....      49.511 sec  (  7.2% of F)
    Basis function eval.    ....      15.729 sec  ( 31.8% of XC)
    Density eval.           ....      18.238 sec  ( 36.8% of XC)
    XC-Functional eval.     ....       2.916 sec  (  5.9% of XC)
    XC-Potential eval.      ....      11.456 sec  ( 23.1% of XC)
Diagonalization             ....       2.536 sec  (  0.4%)
Density matrix formation    ....       0.126 sec  (  0.0%)
Population analysis         ....       1.025 sec  (  0.1%)
Initial guess               ....       0.101 sec  (  0.0%)
Orbital Transformation      ....       0.000 sec  (  0.0%)
Orbital Orthonormalization  ....       0.000 sec  (  0.0%)
DIIS solution               ....       1.038 sec  (  0.1%)
Grid generation             ....       5.680 sec  (  0.8%)

Maximum memory used throughout the entire SCF-calculation: 181.0 MB


-------------------------------------------------------------------------------
                          DFT DISPERSION CORRECTION                            
                                                                               
                              DFTD3 V3.1  Rev 1                                
                          USING Becke-Johnson damping                          
-------------------------------------------------------------------------------
The PBEh-3c composite method is recognized
Using three-body term ABC
Active option DFTDOPT                   ...         4   

molecular C6(AA) [au] = 24174.934864 


            DFT-D V3
 parameters
 s6 scaling factor         :     1.0000 
 a1 scaling factor         :     0.4860 
 s8 scaling factor         :     0.0000 
 a2 scaling factor         :     4.5000 
 Damping factor alpha9(ATM):    16.0000 
 ad hoc parameters k1-k3   :    16.0000     1.3333    -4.0000 

 Edisp/kcal,au: -19.856367646410  -0.031643132652 
 E6   /kcal   : -20.075099692 
 E8   /kcal   :  -0.000000000 
 E6(ABC)      :   0.218732046 
 % E8         :   0.000000000 
 % E6(ABC)    :  -1.101571294 

-------------------------   ----------------
Dispersion correction           -0.031643133
-------------------------   ----------------

 ** NOTE ** -> element pd will be treated as ni
------------------   -----------------
gCP correction             0.074515810
------------------   -----------------

-------------------------   --------------------
FINAL SINGLE POINT ENERGY     -3847.630002725336
-------------------------   --------------------

------------------------------------------------------------------------------
                         ORCA SCF GRADIENT CALCULATION
------------------------------------------------------------------------------

 ... reading COSX grid (gridx3)
Gradient of the Kohn-Sham DFT energy:
Kohn-Sham wavefunction type      ... RKS
Hartree-Fock exchange scaling    ...    0.420
Number of operators              ...    1
Number of atoms                  ...   38
Basis set dimensions             ...  385
Integral neglect threshold       ... 2.5e-11
Integral primitive cutoff        ... 2.5e-12
SHARK Integral package           ... ON

Nuc. rep. gradient       (SHARK) ... done (  0.0 sec)
HCore & Overlap gradient (SHARK) ... done (  1.2 sec)
ECP gradient             (SHARK) ... done (  1.5 sec)
RI-J gradient            (SHARK) ... done (  6.5 sec)
COSX-gradient                    ... done ( 62.0 sec)
Exchange-correlation gradient    ... done
Dispersion correction            ... done
gCP correction                   ... done

------------------
CARTESIAN GRADIENT
------------------

   1   C   :    0.000349424   -0.021407206   -0.001071780
   2   C   :   -0.005820537   -0.008995116   -0.003911961
   3   C   :   -0.003166224   -0.006492766    0.003723695
   4   C   :   -0.006786469   -0.002204834    0.005060305
   5   C   :   -0.001763045    0.002470272   -0.005567373
   6   C   :    0.000318977    0.014471344    0.005020431
   7   H   :   -0.040051243    0.001076792    0.055452163
   8   H   :   -0.000826772    0.008971520    0.005166133
   9   H   :   -0.002529833    0.005150034    0.005108215
  10   H   :   -0.010734383    0.002140717    0.000727922
  11   H   :   -0.003468268    0.005362358    0.002840893
  12   C   :    0.001348351   -0.002565758   -0.009448342
  13   C   :    0.006892661   -0.008031685   -0.003857078
  14   H   :   -0.004250550    0.003126102    0.009836158
  15   H   :    0.002982411    0.001874884   -0.002365456
  16   C   :   -0.000512544   -0.001947339   -0.004187757
  17   H   :    0.000130150   -0.001801890   -0.004309393
  18   H   :   -0.000950819    0.000585802   -0.002107677
  19   C   :   -0.000148764    0.000014333   -0.006442864
  20   C   :    0.003887741   -0.000896046    0.001500389
  21   C   :   -0.000107940    0.004595001   -0.000249839
  22   C   :   -0.002149721    0.003623770   -0.002883978
  23   C   :    0.003756118   -0.003127094    0.001655067
  24   H   :    0.005342706    0.002602806    0.002474241
  25   H   :    0.002242598    0.002823211    0.001906063
  26   H   :    0.003136477   -0.002121627    0.000213264
  27   H   :   -0.001242789    0.002196221    0.000092033
  28   Pd  :    0.021529506   -0.003533582   -0.011654837
  29   Br  :   -0.002374216   -0.004053605   -0.010689861
  30   P   :   -0.004467077    0.006063770   -0.005575440
  31   H   :   -0.001565754   -0.000372300    0.003558186
  32   C   :    0.027998874   -0.023510836   -0.016716071
  33   O   :   -0.005561052    0.019844649   -0.002690080
  34   O   :    0.001772155   -0.011341738   -0.002084576
  35   O   :    0.007638810    0.008569394   -0.006580083
  36   H   :    0.001317080   -0.000950337    0.003734790
  37   H   :   -0.000338685    0.000743883    0.002935484
  38   H   :    0.007945029    0.007399143   -0.008479950

Difference to translation invariance:
           :   -0.0002276153    0.0003522457    0.0001310372

Difference to rotation invariance:
           :    0.0006632314   -0.0026044564    0.0051065756

Norm of the cartesian gradient     ...    0.1003907639
RMS gradient                       ...    0.0094024565
MAX gradient                       ...    0.0554521627

-------
TIMINGS
-------

Total SCF gradient time            ...       84.825 sec

One electron gradient       ....       2.716 sec  (  3.2%)
RI-J Coulomb gradient       ....       6.484 sec  (  7.6%)
COSX gradient               ....      62.009 sec  ( 73.1%)
XC gradient                 ....      10.918 sec  ( 12.9%)

Maximum memory used throughout the entire SCFGRAD-calculation: 146.4 MB

                            ***************************************
                            *     ORCA property calculations      *
                            ***************************************

                                    ---------------------
                                    Active property flags
                                    ---------------------
   (+) Dipole Moment


------------------------------------------------------------------------------
                       ORCA ELECTRIC PROPERTIES CALCULATION
------------------------------------------------------------------------------

Dipole Moment Calculation                       ... on
Quadrupole Moment Calculation                   ... off
Polarizability Calculation                      ... off
GBWName                                         ... 5_19_orca.gbw
Electron density                                ... 5_19_orca.scfp
The origin for moment calculation is the CENTER OF MASS  = (-0.544619, -1.794174 -0.816239)

-------------
DIPOLE MOMENT
-------------
                                X             Y             Z
Electronic contribution:     -3.15333     -65.44143     -11.51245
Nuclear contribution   :      5.26981      65.53616      11.98069
                        -----------------------------------------
Total Dipole Moment    :      2.11648       0.09473       0.46824
                        -----------------------------------------
Magnitude (a.u.)       :      2.16973
Magnitude (Debye)      :      5.51501



--------------------
Rotational spectrum 
--------------------
 
Rotational constants in cm-1:     0.007044     0.006552     0.004498 
Rotational constants in MHz :   211.159720   196.426267   134.846175 

 Dipole components along the rotational axes: 
x,y,z [a.u.] :     1.833299     0.674583     0.944279 
x,y,z [Debye]:     4.659876     1.714654     2.400167 

 

Timings for individual modules:

Sum of individual times         ...      783.617 sec (=  13.060 min)
GTO integral calculation        ...        1.447 sec (=   0.024 min)   0.2 %
SCF iterations                  ...      697.302 sec (=  11.622 min)  89.0 %
SCF Gradient evaluation         ...       84.868 sec (=   1.414 min)  10.8 %
                             ****ORCA TERMINATED NORMALLY****
TOTAL RUN TIME: 0 days 0 hours 13 minutes 4 seconds 95 msec
