
                                 *****************
                                 * O   R   C   A *
                                 *****************

                                            #,                                       
                                            ###                                      
                                            ####                                     
                                            #####                                    
                                            ######                                   
                                           ########,                                 
                                     ,,################,,,,,                         
                               ,,#################################,,                 
                          ,,##########################################,,             
                       ,#########################################, ''#####,          
                    ,#############################################,,   '####,        
                  ,##################################################,,,,####,       
                ,###########''''           ''''###############################       
              ,#####''   ,,,,##########,,,,          '''####'''          '####       
            ,##' ,,,,###########################,,,                        '##       
           ' ,,###''''                  '''############,,,                           
         ,,##''                                '''############,,,,        ,,,,,,###''
      ,#''                                            '''#######################'''  
     '                                                          ''''####''''         
             ,#######,   #######,   ,#######,      ##                                
            ,#'     '#,  ##    ##  ,#'     '#,    #''#        ######   ,####,        
            ##       ##  ##   ,#'  ##            #'  '#       #        #'  '#        
            ##       ##  #######   ##           ,######,      #####,   #    #        
            '#,     ,#'  ##    ##  '#,     ,#' ,#      #,         ##   #,  ,#        
             '#######'   ##     ##  '#######'  #'      '#     #####' # '####'        



                  #######################################################
                  #                        -***-                        #
                  #          Department of theory and spectroscopy      #
                  #    Directorship and core code : Frank Neese         #
                  #        Max Planck Institute fuer Kohlenforschung    #
                  #                Kaiser Wilhelm Platz 1               #
                  #                 D-45470 Muelheim/Ruhr               #
                  #                      Germany                        #
                  #                                                     #
                  #                  All rights reserved                #
                  #                        -***-                        #
                  #######################################################


                         Program Version 5.0.4 -  RELEASE  -


 With contributions from (in alphabetic order):
   Daniel Aravena         : Magnetic Suceptibility
   Michael Atanasov       : Ab Initio Ligand Field Theory (pilot matlab implementation)
   Alexander A. Auer      : GIAO ZORA, VPT2 properties, NMR spectrum
   Ute Becker             : Parallelization
   Giovanni Bistoni       : ED, misc. LED, open-shell LED, HFLD
   Martin Brehm           : Molecular dynamics
   Dmytro Bykov           : SCF Hessian
   Vijay G. Chilkuri      : MRCI spin determinant printing, contributions to CSF-ICE
   Dipayan Datta          : RHF DLPNO-CCSD density
   Achintya Kumar Dutta   : EOM-CC, STEOM-CC
   Dmitry Ganyushin       : Spin-Orbit,Spin-Spin,Magnetic field MRCI
   Miquel Garcia          : C-PCM and meta-GGA Hessian, CC/C-PCM, Gaussian charge scheme
   Yang Guo               : DLPNO-NEVPT2, F12-NEVPT2, CIM, IAO-localization
   Andreas Hansen         : Spin unrestricted coupled pair/coupled cluster methods
   Benjamin Helmich-Paris : MC-RPA, TRAH-SCF, COSX integrals
   Lee Huntington         : MR-EOM, pCC
   Robert Izsak           : Overlap fitted RIJCOSX, COSX-SCS-MP3, EOM
   Marcus Kettner         : VPT2
   Christian Kollmar      : KDIIS, OOCD, Brueckner-CCSD(T), CCSD density, CASPT2, CASPT2-K
   Simone Kossmann        : Meta GGA functionals, TD-DFT gradient, OOMP2, MP2 Hessian
   Martin Krupicka        : Initial AUTO-CI
   Lucas Lang             : DCDCAS
   Marvin Lechner         : AUTO-CI (C++ implementation), FIC-MRCC
   Dagmar Lenk            : GEPOL surface, SMD
   Dimitrios Liakos       : Extrapolation schemes; Compound Job, initial MDCI parallelization
   Dimitrios Manganas     : Further ROCIS development; embedding schemes
   Dimitrios Pantazis     : SARC Basis sets
   Anastasios Papadopoulos: AUTO-CI, single reference methods and gradients
   Taras Petrenko         : DFT Hessian,TD-DFT gradient, ASA, ECA, R-Raman, ABS, FL, XAS/XES, NRVS
   Peter Pinski           : DLPNO-MP2, DLPNO-MP2 Gradient
   Christoph Reimann      : Effective Core Potentials
   Marius Retegan         : Local ZFS, SOC
   Christoph Riplinger    : Optimizer, TS searches, QM/MM, DLPNO-CCSD(T), (RO)-DLPNO pert. Triples
   Tobias Risthaus        : Range-separated hybrids, TD-DFT gradient, RPA, STAB
   Michael Roemelt        : Original ROCIS implementation
   Masaaki Saitow         : Open-shell DLPNO-CCSD energy and density
   Barbara Sandhoefer     : DKH picture change effects
   Avijit Sen             : IP-ROCIS
   Kantharuban Sivalingam : CASSCF convergence, NEVPT2, FIC-MRCI
   Bernardo de Souza      : ESD, SOC TD-DFT
   Georgi Stoychev        : AutoAux, RI-MP2 NMR, DLPNO-MP2 response
   Willem Van den Heuvel  : Paramagnetic NMR
   Boris Wezisla          : Elementary symmetry handling
   Frank Wennmohs         : Technical directorship


 We gratefully acknowledge several colleagues who have allowed us to
 interface, adapt or use parts of their codes:
   Stefan Grimme, W. Hujo, H. Kruse, P. Pracht,  : VdW corrections, initial TS optimization,
                  C. Bannwarth, S. Ehlert          DFT functionals, gCP, sTDA/sTD-DF
   Ed Valeev, F. Pavosevic, A. Kumar             : LibInt (2-el integral package), F12 methods
   Garnet Chan, S. Sharma, J. Yang, R. Olivares  : DMRG
   Ulf Ekstrom                                   : XCFun DFT Library
   Mihaly Kallay                                 : mrcc  (arbitrary order and MRCC methods)
   Jiri Pittner, Ondrej Demel                    : Mk-CCSD
   Frank Weinhold                                : gennbo (NPA and NBO analysis)
   Christopher J. Cramer and Donald G. Truhlar   : smd solvation model
   Lars Goerigk                                  : TD-DFT with DH, B97 family of functionals
   V. Asgeirsson, H. Jonsson                     : NEB implementation
   FAccTs GmbH                                   : IRC, NEB, NEB-TS, DLPNO-Multilevel, CI-OPT
                                                   MM, QMMM, 2- and 3-layer-ONIOM, Crystal-QMMM,
                                                   LR-CPCM, SF, NACMEs, symmetry and pop. for TD-DFT,
                                                   nearIR, NL-DFT gradient (VV10), updates on ESD,
                                                   ML-optimized integration grids
   S Lehtola, MJT Oliveira, MAL Marques          : LibXC Library
   Liviu Ungur et al                             : ANISO software


 Your calculation uses the libint2 library for the computation of 2-el integrals
 For citations please refer to: http://libint.valeyev.net

 Your ORCA version has been built with support for libXC version: 5.1.0
 For citations please refer to: https://tddft.org/programs/libxc/

 This ORCA versions uses:
   CBLAS   interface :  Fast vector & matrix operations
   LAPACKE interface :  Fast linear algebra routines
   SCALAPACK package :  Parallel linear algebra routines
   Shared memory     :  Shared parallel matrices
   BLAS/LAPACK       :  OpenBLAS 0.3.15  USE64BITINT DYNAMIC_ARCH NO_AFFINITY SkylakeX SINGLE_THREADED
        Core in use  :  SkylakeX
   Copyright (c) 2011-2014, The OpenBLAS Project




***************************************
The coordinates will be read from file: cineb-5-peak.xyz
***************************************




################################################################################


                                COMPOUND JOB MainJOB 
Basename: reaction-2-cineb5_optts_Compound_0

################################################################################

================================================================================
                                       INPUT FILE
================================================================================
NAME = reaction-2-cineb5_optts_Compound_0.inp
|  1> %pal nprocs 8 end 
|  2>   
|  3>  *xyzfile -1 1 cineb-5-peak.xyz 
|  4>   
|  5> 
|  6>                          ****END OF INPUT****
================================================================================


***************************************
The coordinates will be read from file: cineb-5-peak.xyz
***************************************


================================================================================

cite the ECPs for Pd [Def2-ECP] as follows:
Ce-Yb(ecp-28): M. Dolg, H. Stoll, H.Preuss, J. Chem. Phys., 1989, 90, 1730-1734.
Y-Cd(ecp-28), Hf-Hg(ecp-46): D. Andrae,U. Haeussermann, M. Dolg, H. Stoll, H. Preuss, Theor. Chim. Acta, 1990, 77, 123-141.
In-Sb(ecp-28), Tl-Bi(ecp-46): B. Metz, H. Stoll, M. Dolg, J. Chem. Phys., 2000, 113, 2563-2569.
Te-Xe(ecp-28), Po-Rn(ecp-46): K. A. Peterson, D. Figgen, E. Goll, H. Stoll, M. Dolg, J. Chem. Phys., 2003, 119, 11113-11123.
Rb(ecp-28), Cs(ecp-46): T. Leininger, A. Nicklass, W. Kuechle, H. Stoll, M. Dolg, A. Bergner, Chem. Phys. Lett., 1996, 255, 274-280.
Sr(ecp-28), Ba(ecp-46): M. Kaupp, P. V. Schleyer, H. Stoll and H. Preuss, J. Chem. Phys., 1991, 94, 1360-1366.
La(ecp-46): M. Dolg, H. Stoll, A. Savin, H. Preuss, Theor. Chim. Acta, 1989, 75, 173-194.
Lu(ecp-28): X. Cao, M. Dolg, J. Chem. Phys., 2001, 115, 7348-7355.

ECP parameters for Pd [Def2-ECP] have been obtained from:
TURBOMOLE (7.0.2)

----- Orbital basis set information -----
Your calculation utilizes the basis: def2-SVP
   F. Weigend and R. Ahlrichs, Phys. Chem. Chem. Phys. 7, 3297 (2005).



################################################################################


                                COMPOUND JOB  1 
Basename: reaction-2-cineb5_optts_Compound_1
NOTE: please remember that MaxCore and PAL settings will be ignored.

################################################################################

================================================================================
                                       INPUT FILE
================================================================================
NAME = reaction-2-cineb5_optts_Compound_1.inp
|  1>   
|  2>    
|  3>   ! PBEh-3c OptTS Freq pal8 
|  4>    
|  5>   %geom 
|  6>    calc_hess true 
|  7>    recalc_hess 20 
|  8>    maxiter 600 
|  9>   end  
| 10>    
| 11> 
| 12>                          ****END OF INPUT****
================================================================================
Your calculation utilizes the geometrical counterpoise correction gCP
Please cite in your paper:
H.Kruse, S. Grimme J.Chem.Phys., 136, (2012), 154101 
   

Your calculation utilizes the atom-pairwise dispersion correction
with the Becke-Johnson damping scheme (D3BJ)
Cite in your paper:
S.Grimme, S.Ehrlich, L.Goerigk, J Comput Chem, (2011), 32, 1456–1465 
S.Grimme, J.Antony, S.Ehrlich and H.Krieg, J.Chem.Phys., 132, (2010), 154104 
   

Your calculation employs the composite approach PBEh-3c.
Please cite in your paper:
S. Grimme, J. G. Brandenburg, C. Bannwarth, A. Hansen J.Chem.Phys., 143, (2015), 054107 
   

================================================================================

cite the ECPs for Pd [Def2-ECP] as follows:
Ce-Yb(ecp-28): M. Dolg, H. Stoll, H.Preuss, J. Chem. Phys., 1989, 90, 1730-1734.
Y-Cd(ecp-28), Hf-Hg(ecp-46): D. Andrae,U. Haeussermann, M. Dolg, H. Stoll, H. Preuss, Theor. Chim. Acta, 1990, 77, 123-141.
In-Sb(ecp-28), Tl-Bi(ecp-46): B. Metz, H. Stoll, M. Dolg, J. Chem. Phys., 2000, 113, 2563-2569.
Te-Xe(ecp-28), Po-Rn(ecp-46): K. A. Peterson, D. Figgen, E. Goll, H. Stoll, M. Dolg, J. Chem. Phys., 2003, 119, 11113-11123.
Rb(ecp-28), Cs(ecp-46): T. Leininger, A. Nicklass, W. Kuechle, H. Stoll, M. Dolg, A. Bergner, Chem. Phys. Lett., 1996, 255, 274-280.
Sr(ecp-28), Ba(ecp-46): M. Kaupp, P. V. Schleyer, H. Stoll and H. Preuss, J. Chem. Phys., 1991, 94, 1360-1366.
La(ecp-46): M. Dolg, H. Stoll, A. Savin, H. Preuss, Theor. Chim. Acta, 1989, 75, 173-194.
Lu(ecp-28): X. Cao, M. Dolg, J. Chem. Phys., 2001, 115, 7348-7355.

ECP parameters for Pd [Def2-ECP] have been obtained from:
TURBOMOLE (7.0.2)

----- Orbital basis set information -----
Your calculation utilizes the basis: def2-mSVP

----- AuxJ basis set information -----
Your calculation utilizes the auxiliary basis: def2/J
   F. Weigend, Phys. Chem. Chem. Phys. 8, 1057 (2006).

================================================================================
                                        WARNINGS
                       Please study these warnings very carefully!
================================================================================


WARNING: Geometry Optimization
  ===> : Switching off AutoStart
         For restart on a previous wavefunction, please use MOREAD

INFO   : the flag for use of the SHARK integral package has been found!


                       *****************************
                       * Geometry Optimization Run *
                       *****************************

Geometry optimization settings:
Update method            Update   .... Bofill
Choice of coordinates    CoordSys .... Z-matrix Internals
Initial Hessian          InHess   .... Almoef's Model

Convergence Tolerances:
Energy Change            TolE     ....  5.0000e-06 Eh
Max. Gradient            TolMAXG  ....  3.0000e-04 Eh/bohr
RMS Gradient             TolRMSG  ....  1.0000e-04 Eh/bohr
Max. Displacement        TolMAXD  ....  4.0000e-03 bohr
RMS Displacement         TolRMSD  ....  2.0000e-03 bohr
Strict Convergence                ....  False
------------------------------------------------------------------------------
                        ORCA OPTIMIZATION COORDINATE SETUP
------------------------------------------------------------------------------

The optimization will be done in new redundant internal coordinates
Making redundant internal coordinates   ...  (new redundants) done
Following TS mode number                ...     0
Evaluating the initial hessian          ...  (Is done on the fly) done
Evaluating the coordinates              ...  done
Calculating the B-matrix                .... done
Calculating the G-matrix                .... done
Diagonalizing the G-matrix              .... done
The first mode is                       ....   98
The number of degrees of freedom        ....   75

    -----------------------------------------------------------------
                    Redundant Internal Coordinates


    -----------------------------------------------------------------
         Definition                    Initial Value    d2E/dq (diagonal element)
    -----------------------------------------------------------------
      1. B(Cl  1,Pd  0)                  2.2396         0.000000   
      2. B(Cl  2,Pd  0)                  2.9802         0.000000   
      3. B(Cl  3,Pd  0)                  2.3464         0.000000   
      4. B(N   4,Pd  0)                  2.1383         0.000000   
      5. B(C   5,N   4)                  1.3236         0.000000   
      6. B(C   6,C   5)                  1.4019         0.000000   
      7. B(C   7,C   6)                  1.3672         0.000000   
      8. B(C   8,N   4)                  1.3474         0.000000   
      9. B(C   9,C   8)                  1.4299         0.000000   
     10. B(C   9,C   7)                  1.4042         0.000000   
     11. B(H  10,C   7)                  1.0882         0.000000   
     12. B(H  11,C   5)                  1.0820         0.000000   
     13. B(H  12,C   6)                  1.0823         0.000000   
     14. B(C  13,C   8)                  1.4567         0.000000   
     15. B(C  14,C   9)                  1.4309         0.000000   
     16. B(C  15,C  14)                  1.3452         0.000000   
     17. B(C  16,C  15)                  1.4543         0.000000   
     18. B(C  16,C  13)                  1.4418         0.000000   
     19. B(H  17,C  14)                  1.0944         0.000000   
     20. B(H  18,C  15)                  1.1001         0.000000   
     21. B(C  19,C  13)                  1.4669         0.000000   
     22. B(C  19,Pd  0)                  2.6286         0.000000   
     23. B(C  20,C  16)                  1.4121         0.000000   
     24. B(C  21,C  19)                  1.3848         0.000000   
     25. B(C  22,C  21)                  1.4210         0.000000   
     26. B(C  22,C  20)                  1.3752         0.000000   
     27. B(H  23,C  20)                  1.0971         0.000000   
     28. B(H  24,C  22)                  1.0864         0.000000   
     29. B(H  25,C  19)                  1.4298         0.000000   
     30. B(H  26,C  21)                  1.0834         0.000000   
     31. A(Cl  1,Pd  0,C  19)          107.9725         0.000000   
     32. A(Cl  1,Pd  0,Cl  3)           87.9157         0.000000   
     33. A(Cl  3,Pd  0,C  19)          129.3630         0.000000   
     34. A(Cl  2,Pd  0,N   4)          108.2811         0.000000   
     35. A(Cl  3,Pd  0,N   4)           85.4949         0.000000   
     36. A(N   4,Pd  0,C  19)           74.7189         0.000000   
     37. A(Cl  1,Pd  0,Cl  2)           78.6986         0.000000   
     38. A(Cl  1,Pd  0,N   4)          173.0197         0.000000   
     39. A(Cl  2,Pd  0,C  19)           74.1593         0.000000   
     40. A(Cl  2,Pd  0,Cl  3)          156.0223         0.000000   
     41. A(Pd  0,N   4,C   5)          120.1043         0.000000   
     42. A(C   5,N   4,C   8)          119.9296         0.000000   
     43. A(Pd  0,N   4,C   8)          118.8418         0.000000   
     44. A(C   6,C   5,H  11)          120.3052         0.000000   
     45. A(N   4,C   5,H  11)          116.3741         0.000000   
     46. A(N   4,C   5,C   6)          123.2981         0.000000   
     47. A(C   5,C   6,H  12)          119.6326         0.000000   
     48. A(C   7,C   6,H  12)          121.7244         0.000000   
     49. A(C   5,C   6,C   7)          118.5831         0.000000   
     50. A(C   6,C   7,H  10)          121.0543         0.000000   
     51. A(C   6,C   7,C   9)          119.0374         0.000000   
     52. A(C   9,C   7,H  10)          119.8990         0.000000   
     53. A(N   4,C   8,C   9)          119.6988         0.000000   
     54. A(C   9,C   8,C  13)          122.9862         0.000000   
     55. A(N   4,C   8,C  13)          117.2972         0.000000   
     56. A(C   7,C   9,C   8)          119.1928         0.000000   
     57. A(C   7,C   9,C  14)          120.3231         0.000000   
     58. A(C   8,C   9,C  14)          120.4793         0.000000   
     59. A(C   8,C  13,C  16)          112.1960         0.000000   
     60. A(C  16,C  13,C  19)          122.9147         0.000000   
     61. A(C   8,C  13,C  19)          124.8866         0.000000   
     62. A(C  15,C  14,H  17)          121.7246         0.000000   
     63. A(C   9,C  14,H  17)          119.4390         0.000000   
     64. A(C   9,C  14,C  15)          118.8364         0.000000   
     65. A(C  14,C  15,H  18)          118.8678         0.000000   
     66. A(C  14,C  15,C  16)          121.2583         0.000000   
     67. A(C  16,C  15,H  18)          119.8151         0.000000   
     68. A(C  13,C  16,C  15)          123.6205         0.000000   
     69. A(C  15,C  16,C  20)          116.1095         0.000000   
     70. A(C  13,C  16,C  20)          120.0787         0.000000   
     71. A(C  13,C  19,H  25)          139.4759         0.000000   
     72. A(Pd  0,C  19,H  25)           59.5859         0.000000   
     73. A(C  21,C  19,H  25)          107.8515         0.000000   
     74. A(C  13,C  19,C  21)          111.3812         0.000000   
     75. A(Pd  0,C  19,C  21)          137.1196         0.000000   
     76. A(Pd  0,C  19,C  13)           96.1121         0.000000   
     77. A(C  22,C  20,H  23)          121.2531         0.000000   
     78. A(C  16,C  20,H  23)          121.5245         0.000000   
     79. A(C  16,C  20,C  22)          117.2206         0.000000   
     80. A(C  22,C  21,H  26)          116.5583         0.000000   
     81. A(C  19,C  21,H  26)          117.9061         0.000000   
     82. A(C  19,C  21,C  22)          125.4777         0.000000   
     83. A(C  21,C  22,H  24)          119.1970         0.000000   
     84. A(C  20,C  22,H  24)          118.7971         0.000000   
     85. A(C  20,C  22,C  21)          121.5675         0.000000   
     86. D(C   5,N   4,Pd  0,Cl  3)     58.2951         0.000000   
     87. D(C   8,N   4,Pd  0,Cl  3)   -109.5787         0.000000   
     88. D(C   8,N   4,Pd  0,C  19)     23.3464         0.000000   
     89. D(C   5,N   4,Pd  0,Cl  2)   -101.6265         0.000000   
     90. D(C   5,N   4,Pd  0,Cl  1)     77.6071         0.000000   
     91. D(C   8,N   4,Pd  0,Cl  2)     90.4997         0.000000   
     92. D(C   5,N   4,Pd  0,C  19)   -168.7798         0.000000   
     93. D(C   8,N   4,Pd  0,Cl  1)    -90.2668         0.000000   
     94. D(H  11,C   5,N   4,Pd  0)     15.7808         0.000000   
     95. D(H  11,C   5,N   4,C   8)   -176.4777         0.000000   
     96. D(C   6,C   5,N   4,C   8)      1.7944         0.000000   
     97. D(C   6,C   5,N   4,Pd  0)   -165.9470         0.000000   
     98. D(H  12,C   6,C   5,N   4)    179.7474         0.000000   
     99. D(C   7,C   6,C   5,H  11)   -179.2787         0.000000   
    100. D(H  12,C   6,C   5,H  11)     -2.0457         0.000000   
    101. D(C   7,C   6,C   5,N   4)      2.5144         0.000000   
    102. D(H  10,C   7,C   6,H  12)      1.0000         0.000000   
    103. D(H  10,C   7,C   6,C   5)    178.1724         0.000000   
    104. D(C   9,C   7,C   6,H  12)    179.8870         0.000000   
    105. D(C   9,C   7,C   6,C   5)     -2.9407         0.000000   
    106. D(C  13,C   8,N   4,C   5)    173.1121         0.000000   
    107. D(C  13,C   8,N   4,Pd  0)    -18.9924         0.000000   
    108. D(C   9,C   8,N   4,C   5)     -5.4006         0.000000   
    109. D(C   9,C   8,N   4,Pd  0)    162.4949         0.000000   
    110. D(C   7,C   9,C   8,N   4)      4.8312         0.000000   
    111. D(C   7,C   9,C   8,C  13)   -173.5931         0.000000   
    112. D(C  14,C   9,C   7,H  10)     -0.8825         0.000000   
    113. D(C  14,C   9,C   7,C   6)   -179.7825         0.000000   
    114. D(C   8,C   9,C   7,H  10)    178.3267         0.000000   
    115. D(C   8,C   9,C   7,C   6)     -0.5734         0.000000   
    116. D(C  14,C   9,C   8,N   4)   -175.9609         0.000000   
    117. D(C  14,C   9,C   8,C  13)      5.6147         0.000000   
    118. D(C  19,C  13,C   8,C   9)    170.2134         0.000000   
    119. D(C  16,C  13,C   8,C   9)     -9.2039         0.000000   
    120. D(C  16,C  13,C   8,N   4)    172.3363         0.000000   
    121. D(C  19,C  13,C   8,N   4)     -8.2464         0.000000   
    122. D(H  17,C  14,C   9,C   8)   -179.0946         0.000000   
    123. D(H  17,C  14,C   9,C   7)      0.1042         0.000000   
    124. D(C  15,C  14,C   9,C   8)      0.8895         0.000000   
    125. D(C  15,C  14,C   9,C   7)   -179.9117         0.000000   
    126. D(H  18,C  15,C  14,H  17)      0.0207         0.000000   
    127. D(H  18,C  15,C  14,C   9)   -179.9630         0.000000   
    128. D(C  16,C  15,C  14,H  17)    177.2264         0.000000   
    129. D(C  16,C  15,C  14,C   9)     -2.7573         0.000000   
    130. D(C  20,C  16,C  15,H  18)      0.4834         0.000000   
    131. D(C  20,C  16,C  15,C  14)   -176.6962         0.000000   
    132. D(C  13,C  16,C  15,H  18)    175.4468         0.000000   
    133. D(C  13,C  16,C  15,C  14)     -1.7328         0.000000   
    134. D(C  20,C  16,C  13,C  19)      2.7108         0.000000   
    135. D(C  20,C  16,C  13,C   8)   -177.8586         0.000000   
    136. D(C  15,C  16,C  13,C  19)   -172.0622         0.000000   
    137. D(C  15,C  16,C  13,C   8)      7.3684         0.000000   
    138. D(H  25,C  19,Pd  0,Cl  2)      8.8763         0.000000   
    139. D(H  25,C  19,Pd  0,Cl  1)    -63.2935         0.000000   
    140. D(C  21,C  19,Pd  0,N   4)   -152.8725         0.000000   
    141. D(C  21,C  19,Pd  0,Cl  3)    -82.1077         0.000000   
    142. D(C  21,C  19,Pd  0,Cl  2)     92.5745         0.000000   
    143. D(C  21,C  19,Pd  0,Cl  1)     20.4047         0.000000   
    144. D(C  13,C  19,Pd  0,N   4)    -22.0181         0.000000   
    145. D(C  13,C  19,Pd  0,Cl  3)     48.7468         0.000000   
    146. D(C  13,C  19,Pd  0,Cl  2)   -136.5710         0.000000   
    147. D(H  25,C  19,Pd  0,Cl  3)   -165.8059         0.000000   
    148. D(C  13,C  19,Pd  0,Cl  1)    151.2592         0.000000   
    149. D(H  25,C  19,C  13,C  16)    153.5691         0.000000   
    150. D(H  25,C  19,C  13,C   8)    -25.7882         0.000000   
    151. D(C  21,C  19,C  13,C  16)    -11.1559         0.000000   
    152. D(C  21,C  19,C  13,C   8)    169.4868         0.000000   
    153. D(Pd  0,C  19,C  13,C  16)   -157.6013         0.000000   
    154. D(Pd  0,C  19,C  13,C   8)     23.0414         0.000000   
    155. D(H  25,C  19,Pd  0,N   4)    123.4292         0.000000   
    156. D(H  23,C  20,C  16,C  15)      0.1112         0.000000   
    157. D(H  23,C  20,C  16,C  13)   -175.0425         0.000000   
    158. D(C  22,C  20,C  16,C  15)   -179.4162         0.000000   
    159. D(C  22,C  20,C  16,C  13)      5.4301         0.000000   
    160. D(H  26,C  21,C  19,H  25)     20.1936         0.000000   
    161. D(H  26,C  21,C  19,C  13)   -170.1670         0.000000   
    162. D(H  26,C  21,C  19,Pd  0)    -44.0349         0.000000   
    163. D(C  22,C  21,C  19,H  25)   -156.9333         0.000000   
    164. D(C  22,C  21,C  19,C  13)     12.7062         0.000000   
    165. D(C  22,C  21,C  19,Pd  0)    138.8382         0.000000   
    166. D(H  24,C  22,C  21,H  26)    -10.4547         0.000000   
    167. D(H  24,C  22,C  21,C  19)    166.7068         0.000000   
    168. D(C  20,C  22,C  21,H  26)    177.2357         0.000000   
    169. D(C  20,C  22,C  21,C  19)     -5.6028         0.000000   
    170. D(H  24,C  22,C  20,H  23)      3.7463         0.000000   
    171. D(H  24,C  22,C  20,C  16)   -176.7250         0.000000   
    172. D(C  21,C  22,C  20,H  23)    176.0857         0.000000   
    173. D(C  21,C  22,C  20,C  16)     -4.3856         0.000000   
    -----------------------------------------------------------------

Number of atoms                         .... 27
Number of degrees of freedom            .... 173

         *************************************************************
         *                GEOMETRY OPTIMIZATION CYCLE   1            *
         *************************************************************
---------------------------------
CARTESIAN COORDINATES (ANGSTROEM)
---------------------------------
  Pd    -2.135890   -1.761860    0.685210
  Cl    -3.541000   -3.277600   -0.177470
  Cl    -0.677620   -4.298580    1.250850
  Cl    -3.938470   -0.261800    0.764030
  N     -0.968100   -0.135250    1.435430
  C     -1.289380    0.438300    2.584240
  C     -0.765810    1.669620    3.002670
  C      0.081130    2.339250    2.163920
  C     -0.069660    0.450360    0.619780
  C      0.444830    1.744230    0.945170
  H      0.487470    3.311510    2.435450
  H     -1.971310   -0.109680    3.220880
  H     -1.073060    2.086590    3.952970
  C      0.356970   -0.300800   -0.553180
  C      1.333140    2.418550    0.048720
  C      1.660210    1.821810   -1.111630
  C      1.176630    0.489540   -1.437630
  H      1.728510    3.401870    0.321600
  H      2.343640    2.339530   -1.800980
  C      0.017690   -1.702620   -0.820860
  C      1.644610   -0.061940   -2.650430
  C      0.364340   -2.068540   -2.110720
  C      1.191930   -1.316110   -2.987250
  H      2.334320    0.488360   -3.302420
  H      1.576880   -1.787170   -3.887320
  H     -0.334480   -2.890870   -0.107820
  H      0.016680   -3.027200   -2.476590

----------------------------
CARTESIAN COORDINATES (A.U.)
----------------------------
  NO LB      ZA    FRAG     MASS         X           Y           Z
   0 Pd   18.0000*   0   106.400   -4.036247   -3.329433    1.294859
   1 Cl   17.0000    0    35.453   -6.691520   -6.193766   -0.335370
   2 Cl   17.0000    0    35.453   -1.280516   -8.123139    2.363764
   3 Cl   17.0000    0    35.453   -7.442630   -0.494730    1.443807
   4 N     7.0000    0    14.007   -1.829444   -0.255585    2.712570
   5 C     6.0000    0    12.011   -2.436575    0.828267    4.883506
   6 C     6.0000    0    12.011   -1.447171    3.155125    5.674224
   7 C     6.0000    0    12.011    0.153313    4.420542    4.089216
   8 C     6.0000    0    12.011   -0.131638    0.851057    1.171214
   9 C     6.0000    0    12.011    0.840607    3.296117    1.786112
  10 H     1.0000    0     1.008    0.921185    6.257847    4.602334
  11 H     1.0000    0     1.008   -3.725236   -0.207265    6.086581
  12 H     1.0000    0     1.008   -2.027790    3.943084    7.470031
  13 C     6.0000    0    12.011    0.674576   -0.568430   -1.045359
  14 C     6.0000    0    12.011    2.519269    4.570397    0.092067
  15 C     6.0000    0    12.011    3.137342    3.442722   -2.100676
  16 C     6.0000    0    12.011    2.223508    0.925097   -2.716727
  17 H     1.0000    0     1.008    3.266411    6.428603    0.607736
  18 H     1.0000    0     1.008    4.428838    4.421071   -3.403359
  19 C     6.0000    0    12.011    0.033429   -3.217486   -1.551201
  20 C     6.0000    0    12.011    3.107862   -0.117050   -5.008587
  21 C     6.0000    0    12.011    0.688503   -3.908974   -3.988683
  22 C     6.0000    0    12.011    2.252421   -2.487087   -5.645084
  23 H     1.0000    0     1.008    4.411226    0.922867   -6.240669
  24 H     1.0000    0     1.008    2.979871   -3.377262   -7.345970
  25 H     1.0000    0     1.008   -0.632076   -5.462953   -0.203750
  26 H     1.0000    0     1.008    0.031521   -5.720579   -4.680077
* core charge reduced due to ECP

--------------------------------
INTERNAL COORDINATES (ANGSTROEM)
--------------------------------
 Pd     0   0   0     0.000000000000     0.00000000     0.00000000
 Cl     1   0   0     2.239646990510     0.00000000     0.00000000
 Cl     1   2   0     2.980175894289    78.69858944     0.00000000
 Cl     1   2   3     2.346420092907    87.91573757   200.00533056
 N      1   2   3     2.138322619391   173.01969607   180.74214784
 C      5   1   2     1.323610538263   120.10434779    77.60708272
 C      6   5   1     1.401912319726   123.29810017   194.05295444
 C      7   6   5     1.367191743319   118.58306280     2.51438914
 C      5   1   2     1.347374642852   118.84177459   269.73323527
 C      8   7   6     1.404164539112   119.03741426   357.05932278
 H      8   7   6     1.088177487407   121.05428007   178.17239050
 H      6   5   1     1.081952445766   116.37410348    15.78081671
 H      7   6   5     1.082283065284   119.63255483   179.74738644
 C      9   5   1     1.456739394710   117.29718085   341.00760768
 C     10   8   7     1.430882497272   120.32308282   180.21747099
 C     15  10   8     1.345171191708   118.83638168   180.08831845
 C     14   9   5     1.441780716233   112.19604258   172.33632850
 H     15  10   8     1.094394423277   119.43904571     0.10424533
 H     16  15  10     1.100142711561   118.86782853   180.03702731
 C     14   9   5     1.466922906359   124.88658267   351.75357203
 C     17  14   9     1.412097486295   120.07871286   182.14139165
 C     20  14   9     1.384847460372   111.38116120   169.48682990
 C     21  17  14     1.375248807925   117.22064443     5.43012851
 H     21  17  14     1.097096592922   121.52454965   184.95749689
 H     23  21  17     1.086374719422   118.79713891   183.27499193
 H     20  14   9     1.429820902421   139.47589067   334.21180344
 H     22  20  14     1.083400815996   117.90611499   189.83301803

---------------------------
INTERNAL COORDINATES (A.U.)
---------------------------
 Pd     0   0   0     0.000000000000     0.00000000     0.00000000
 Cl     1   0   0     4.232319448725     0.00000000     0.00000000
 Cl     1   2   0     5.631716271120    78.69858944     0.00000000
 Cl     1   2   3     4.434091370725    87.91573757   200.00533056
 N      1   2   3     4.040844136618   173.01969607   180.74214784
 C      5   1   2     2.501261425289   120.10434779    77.60708272
 C      6   5   1     2.649230348053   123.29810017   194.05295444
 C      7   6   5     2.583617967432   118.58306280     2.51438914
 C      5   1   2     2.546169074780   118.84177459   269.73323527
 C      8   7   6     2.653486425886   119.03741426   357.05932278
 H      8   7   6     2.056357436298   121.05428007   178.17239050
 H      6   5   1     2.044593812425   116.37410348    15.78081671
 H      7   6   5     2.045218592767   119.63255483   179.74738644
 C      9   5   1     2.752838504496   117.29718085   341.00760768
 C     10   8   7     2.703976049666   120.32308282   180.21747099
 C     15  10   8     2.542005155568   118.83638168   180.08831845
 C     14   9   5     2.724570698848   112.19604258   172.33632850
 H     15  10   8     2.068105742484   119.43904571     0.10424533
 H     16  15  10     2.078968433079   118.86782853   180.03702731
 C     14   9   5     2.772082552594   124.88658267   351.75357203
 C     17  14   9     2.668477523496   120.07871286   182.14139165
 C     20  14   9     2.616982437360   111.38116120   169.48682990
 C     21  17  14     2.598843612981   117.22064443     5.43012851
 H     21  17  14     2.073212103080   121.52454965   184.95749689
 H     23  21  17     2.052950698524   118.79713891   183.27499193
 H     20  14   9     2.701969926132   139.47589067   334.21180344
 H     22  20  14     2.047330835499   117.90611499   189.83301803

---------------------
BASIS SET INFORMATION
---------------------
There are 5 groups of distinct atoms

 Group   1 Type Pd  : 7s6p5d1f contracted to 5s3p2d1f pattern {31111/411/41/1}
 Group   2 Type Cl  : 10s7p1d contracted to 4s3p1d pattern {5311/511/1}
 Group   3 Type N   : 8s4p1d contracted to 4s2p1d pattern {5111/31/1}
 Group   4 Type C   : 8s4p1d contracted to 4s2p1d pattern {5111/31/1}
 Group   5 Type H   : 4s contracted to 2s pattern {31}

Atom   0Pd   basis set group =>   1
Atom   1Cl   basis set group =>   2
Atom   2Cl   basis set group =>   2
Atom   3Cl   basis set group =>   2
Atom   4N    basis set group =>   3
Atom   5C    basis set group =>   4
Atom   6C    basis set group =>   4
Atom   7C    basis set group =>   4
Atom   8C    basis set group =>   4
Atom   9C    basis set group =>   4
Atom  10H    basis set group =>   5
Atom  11H    basis set group =>   5
Atom  12H    basis set group =>   5
Atom  13C    basis set group =>   4
Atom  14C    basis set group =>   4
Atom  15C    basis set group =>   4
Atom  16C    basis set group =>   4
Atom  17H    basis set group =>   5
Atom  18H    basis set group =>   5
Atom  19C    basis set group =>   4
Atom  20C    basis set group =>   4
Atom  21C    basis set group =>   4
Atom  22C    basis set group =>   4
Atom  23H    basis set group =>   5
Atom  24H    basis set group =>   5
Atom  25H    basis set group =>   5
Atom  26H    basis set group =>   5
---------------------------------
AUXILIARY/J BASIS SET INFORMATION
---------------------------------
There are 5 groups of distinct atoms

 Group   1 Type Pd  : 11s5p5d3f3g contracted to 8s5p5d2f3g pattern {41111111/11111/11111/21/111}
 Group   2 Type Cl  : 14s5p5d2f1g contracted to 8s4p3d1f1g pattern {71111111/2111/311/2/1}
 Group   3 Type N   : 12s5p4d2f1g contracted to 6s4p3d1f1g pattern {711111/2111/211/2/1}
 Group   4 Type C   : 12s5p4d2f1g contracted to 6s4p3d1f1g pattern {711111/2111/211/2/1}
 Group   5 Type H   : 5s2p1d contracted to 3s1p1d pattern {311/2/1}

Atom   0Pd   basis set group =>   1
Atom   1Cl   basis set group =>   2
Atom   2Cl   basis set group =>   2
Atom   3Cl   basis set group =>   2
Atom   4N    basis set group =>   3
Atom   5C    basis set group =>   4
Atom   6C    basis set group =>   4
Atom   7C    basis set group =>   4
Atom   8C    basis set group =>   4
Atom   9C    basis set group =>   4
Atom  10H    basis set group =>   5
Atom  11H    basis set group =>   5
Atom  12H    basis set group =>   5
Atom  13C    basis set group =>   4
Atom  14C    basis set group =>   4
Atom  15C    basis set group =>   4
Atom  16C    basis set group =>   4
Atom  17H    basis set group =>   5
Atom  18H    basis set group =>   5
Atom  19C    basis set group =>   4
Atom  20C    basis set group =>   4
Atom  21C    basis set group =>   4
Atom  22C    basis set group =>   4
Atom  23H    basis set group =>   5
Atom  24H    basis set group =>   5
Atom  25H    basis set group =>   5
Atom  26H    basis set group =>   5
-------------------------
ECP PARAMETER INFORMATION
-------------------------

 Group 1, Type Pd ECP Def2-ECP (replacing 28 core electrons, lmax=3)

Atom   0Pd   ECP group =>   1



           ************************************************************
           *        Program running with 8 parallel MPI-processes     *
           *              working on a common directory               *
           ************************************************************
------------------------------------------------------------------------------
                           ORCA GTO INTEGRAL CALCULATION
                           -- RI-GTO INTEGRALS CHOSEN --
------------------------------------------------------------------------------
------------------------------------------------------------------------------
                   ___                                                        
                  /   \      - P O W E R E D   B Y -                         
                 /     \                                                     
                 |  |  |   _    _      __       _____    __    __             
                 |  |  |  | |  | |    /  \     |  _  \  |  |  /  |          
                  \  \/   | |  | |   /    \    | | | |  |  | /  /          
                 / \  \   | |__| |  /  /\  \   | |_| |  |  |/  /          
                |  |  |   |  __  | /  /__\  \  |    /   |      \           
                |  |  |   | |  | | |   __   |  |    \   |  |\   \          
                \     /   | |  | | |  |  |  |  | |\  \  |  | \   \       
                 \___/    |_|  |_| |__|  |__|  |_| \__\ |__|  \__/        
                                                                              
                      - O R C A' S   B I G   F R I E N D -                    
                                      &                                       
                       - I N T E G R A L  F E E D E R -                       
                                                                              
 v1 FN, 2020, v2 2021                                                         
------------------------------------------------------------------------------


Reading SHARK input file reaction-2-cineb5_optts_Compound_1.SHARKINP.tmp ... ok
----------------------
SHARK INTEGRAL PACKAGE
----------------------

Number of atoms                             ...     27
Number of basis functions                   ...    313
Number of shells                            ...    151
Maximum angular momentum                    ...      3
Integral batch strategy                     ... SHARK/LIBINT Hybrid
RI-J (if used) integral strategy            ... SPLIT-RIJ (Revised 2003 algorithm where possible)
Printlevel                                  ...      1
Contraction scheme used                     ... SEGMENTED contraction
Coulomb Range Separation                    ... NOT USED
Exchange Range Separation                   ... NOT USED
Finite Nucleus Model                        ... NOT USED
Auxiliary Coulomb fitting basis             ... AVAILABLE
   # of basis functions in Aux-J            ...   1027
   # of shells in Aux-J                     ...    329
   Maximum angular momentum in Aux-J        ...      4
Auxiliary J/K fitting basis                 ... NOT available
Auxiliary Correlation fitting basis         ... NOT available
Auxiliary 'external' fitting basis          ... NOT available
Integral threshold                          ...     2.500000e-11
Primitive cut-off                           ...     2.500000e-12
Primitive pair pre-selection threshold      ...     2.500000e-12

Calculating pre-screening integrals         ... done (  0.0 sec) Dimension = 151
Organizing shell pair data                  ... done (  0.1 sec)
Shell pair information
Total number of shell pairs                 ...     11476
Shell pairs after pre-screening             ...      8573
Total number of primitive shell pairs       ...     42779
Primitive shell pairs kept                  ...     20168
          la=0 lb=0:   2805 shell pairs
          la=1 lb=0:   2930 shell pairs
          la=1 lb=1:    740 shell pairs
          la=2 lb=0:   1203 shell pairs
          la=2 lb=1:    641 shell pairs
          la=2 lb=2:    148 shell pairs
          la=3 lb=0:     57 shell pairs
          la=3 lb=1:     35 shell pairs
          la=3 lb=2:     13 shell pairs
          la=3 lb=3:      1 shell pairs

Calculating one electron integrals          ... done (  0.0 sec)
Calculating ECP integrals                   ... done (  0.3 sec)
Calculating RI/J V-Matrix + Cholesky decomp.... done (  0.1 sec)
Calculating Nuclear repulsion               ... done (  0.0 sec) ENN=   1824.569274817540 Eh

SHARK setup successfully completed in   0.7 seconds

Maximum memory used throughout the entire GTOINT-calculation: 21.0 MB


           ************************************************************
           *        Program running with 8 parallel MPI-processes     *
           *              working on a common directory               *
           ************************************************************
-------------------------------------------------------------------------------
                                 ORCA SCF
-------------------------------------------------------------------------------

------------
SCF SETTINGS
------------
Hamiltonian:
 Density Functional     Method          .... DFT(GTOs)
 Exchange Functional    Exchange        .... PBE
   PBE kappa parameter   XKappa         ....  1.024500
   PBE mue parameter    XMuePBE         ....  0.123457
 Correlation Functional Correlation     .... PBE
   PBE beta parameter  CBetaPBE         ....  0.030000
 LDA part of GGA corr.  LDAOpt          .... PW91-LDA
 Gradients option       PostSCFGGA      .... off
 Hybrid DFT is turned on
   Fraction HF Exchange ScalHFX         ....  0.420000
   Scaling of DF-GGA-X  ScalDFX         ....  0.580000
   Scaling of DF-GGA-C  ScalDFC         ....  1.000000
   Scaling of DF-LDA-C  ScalLDAC        ....  1.000000
   Perturbative correction              ....  0.000000
   Density functional embedding theory  .... OFF
 RI-approximation to the Coulomb term is turned on
   Number of AuxJ basis functions       .... 1027
   RIJ-ON(X) (HFX calculated with O(N)) .... on
   Number of AuxJ basis functions       .... 1027
   RIJ-COSX (HFX calculated with COS-X)).... on


General Settings:
 Integral files         IntName         .... reaction-2-cineb5_optts_Compound_1
 Hartree-Fock type      HFTyp           .... RHF
 Total Charge           Charge          ....   -1
 Multiplicity           Mult            ....    1
 Number of Electrons    NEL             ....  164
 Basis Dimension        Dim             ....  313
 Nuclear Repulsion      ENuc            ....   1824.5692748175 Eh

Convergence Acceleration:
 DIIS                   CNVDIIS         .... on
   Start iteration      DIISMaxIt       ....    12
   Startup error        DIISStart       ....  0.200000
   # of expansion vecs  DIISMaxEq       ....     5
   Bias factor          DIISBfac        ....   1.050
   Max. coefficient     DIISMaxC        ....  10.000
 Trust-Rad. Augm. Hess. CNVTRAH         .... auto
   Auto Start mean grad. ratio tolernc. ....  1.125000
   Auto Start start iteration           ....    20
   Auto Start num. interpolation iter.  ....    10
   Max. Number of Micro iterations      ....    16
   Max. Number of Macro iterations      .... Maxiter - #DIIS iter
   Number of Davidson start vectors     ....     2
   Converg. threshold I  (grad. norm)   ....   1.000e-05
   Converg. threshold II (energy diff.) ....   1.000e-08
   Grad. Scal. Fac. for Micro threshold ....   0.100
   Minimum threshold for Micro iter.    ....   0.010
   NR start threshold (gradient norm)   ....   0.001
   Initial trust radius                 ....   0.400
   Minimum AH scaling param. (alpha)    ....   1.000
   Maximum AH scaling param. (alpha)    .... 1000.000
   Orbital update algorithm             .... Taylor
   White noise on init. David. guess    .... on
   Maximum white noise                  ....   0.010
   Quad. conv. algorithm                .... NR
   COSX micro iterations for RIJONX calc.... off
 SOSCF                  CNVSOSCF        .... off
 Level Shifting         CNVShift        .... on
   Level shift para.    LevelShift      ....    0.2500
   Turn off err/grad.   ShiftErr        ....    0.0010
 Zerner damping         CNVZerner       .... off
 Static damping         CNVDamp         .... on
   Fraction old density DampFac         ....    0.7000
   Max. Damping (<1)    DampMax         ....    0.9800
   Min. Damping (>=0)   DampMin         ....    0.0000
   Turn off err/grad.   DampErr         ....    0.1000
 Fernandez-Rico         CNVRico         .... off

SCF Procedure:
 Maximum # iterations   MaxIter         ....   125
 SCF integral mode      SCFMode         .... Direct
   Integral package                     .... SHARK and LIBINT hybrid scheme
 Reset frequency        DirectResetFreq ....    20
 Integral Threshold     Thresh          ....  2.500e-11 Eh
 Primitive CutOff       TCut            ....  2.500e-12 Eh

Convergence Tolerance:
 Convergence Check Mode ConvCheckMode   .... Total+1el-Energy
 Convergence forced     ConvForced      .... 0
 Energy Change          TolE            ....  1.000e-08 Eh
 1-El. energy change                    ....  1.000e-05 Eh
 DIIS Error             TolErr          ....  5.000e-07


Diagonalization of the overlap matrix:
Smallest eigenvalue                        ... 3.612e-04
Time for diagonalization                   ...    0.018 sec
Threshold for overlap eigenvalues          ... 1.000e-08
Number of eigenvalues below threshold      ... 0
Time for construction of square roots      ...    0.011 sec
Total time needed                          ...    0.030 sec

--------------------------------
INITIAL GUESS: MINIMAL BASIS EHT
--------------------------------
The minimal basis has 119 functions
EHT matrix was diagonalized
Basis set overlap was calculated now projecting the orbitals
Using GuessMode=FMatrix for the initial guess
C*T matrix was formed
Effective Fockian was calculated
Effective Fockian was diagonalized
Initial density was built
                      ------------------
                      INITIAL GUESS DONE
                      ------------------
-------------------
DFT GRID GENERATION
-------------------

General Integration Accuracy     IntAcc      ... 4.159
Radial Grid Type                 RadialGrid  ... OptM3 with GC (2021)
Angular Grid (max. ang.)         AngularGrid ... 3 (Lebedev-194)
Angular grid pruning method      GridPruning ... 4 (adaptive)
Weight generation scheme         WeightScheme... Becke
Basis function cutoff            BFCut       ... 1.0000e-11
Integration weight cutoff        WCut        ... 1.0000e-14
Angular grids for H and He will be reduced by one unit
Partially contracted basis set               ... off
Rotationally invariant grid construction     ... off

Total number of grid points                  ...    76298
Total number of batches                      ...     1208
Average number of points per batch           ...       63
Average number of grid points per atom       ...     2826
Time for grid setup =    0.294 sec

--------------------
COSX GRID GENERATION
--------------------

GRIDX 1
-------
General Integration Accuracy     IntAcc      ... 3.816
Radial Grid Type                 RadialGrid  ... OptM3 with GC (2021)
Angular Grid (max. ang.)         AngularGrid ... 1 (Lebedev-50)
Angular grid pruning method      GridPruning ... 4 (adaptive)
Weight generation scheme         WeightScheme... Becke
Basis function cutoff            BFCut       ... 1.0000e-11
Integration weight cutoff        WCut        ... 1.0000e-14
Angular grids for H and He will be reduced by one unit
Partially contracted basis set               ... on
Rotationally invariant grid construction     ... off

Total number of grid points                  ...    17837
Total number of batches                      ...      292
Average number of points per batch           ...       61
Average number of grid points per atom       ...      661
UseSFitting                                  ... on

GRIDX 2
-------
General Integration Accuracy     IntAcc      ... 4.020
Radial Grid Type                 RadialGrid  ... OptM3 with GC (2021)
Angular Grid (max. ang.)         AngularGrid ... 2 (Lebedev-110)
Angular grid pruning method      GridPruning ... 4 (adaptive)
Weight generation scheme         WeightScheme... Becke
Basis function cutoff            BFCut       ... 1.0000e-11
Integration weight cutoff        WCut        ... 1.0000e-14
Angular grids for H and He will be reduced by one unit
Partially contracted basis set               ... on
Rotationally invariant grid construction     ... off

Total number of grid points                  ...    39876
Total number of batches                      ...      636
Average number of points per batch           ...       62
Average number of grid points per atom       ...     1477
UseSFitting                                  ... on

GRIDX 3
-------
General Integration Accuracy     IntAcc      ... 4.338
Radial Grid Type                 RadialGrid  ... OptM3 with GC (2021)
Angular Grid (max. ang.)         AngularGrid ... 3 (Lebedev-194)
Angular grid pruning method      GridPruning ... 4 (adaptive)
Weight generation scheme         WeightScheme... Becke
Basis function cutoff            BFCut       ... 1.0000e-11
Integration weight cutoff        WCut        ... 1.0000e-14
Angular grids for H and He will be reduced by one unit
Partially contracted basis set               ... on
Rotationally invariant grid construction     ... off

Total number of grid points                  ...    88658
Total number of batches                      ...     1401
Average number of points per batch           ...       63
Average number of grid points per atom       ...     3284
UseSFitting                                  ... on

Time for X-Grid setup             =    0.680 sec

--------------
SCF ITERATIONS
--------------
ITER       Energy         Delta-E        Max-DP      RMS-DP      [F,P]     Damp
               ***  Starting incremental Fock matrix formation  ***
  0  -2048.1694840743   0.000000000000 3.61435353  0.03753941  5.2292291 0.7000
  1  -2033.2842364171  14.885247657239 5.21627112  0.06682822  3.9995445 0.7000
  2  -2030.2787894558   3.005446961322 2.57173294  0.03174127  2.5859378 0.7000
  3  -2033.7008803811  -3.422090925339 4.32771089  0.04406686  1.9291332 0.7000
  4  -2034.2853467822  -0.584466401093 2.36527885  0.03162046  1.2302810 0.7000
  5  -2035.7352878901  -1.449941107851 3.07327597  0.03797849  0.9732023 0.7000
  6  -2034.3227659808   1.412521909248 2.46628184  0.03277417  0.5647956 0.7000
  7  -2036.4861232264  -2.163357245545 3.11133501  0.03736351  0.5035070 0.7000
  8  -2035.0180059400   1.468117286362 2.59182812  0.03381028  0.2533569 0.7000
  9  -2036.5440394446  -1.526033504595 2.77589285  0.03478588  0.3595211 0.7000
 10  -2035.0896451510   1.454394293606 2.64508319  0.03414202  0.2746239 0.7000
 11  -2036.7331491986  -1.643504047594 2.80973975  0.03523560  0.4100751 0.7000
                               ***Turning on DIIS***
 12  -2035.1205720177   1.612577180839 2.69699275  0.03445584  0.2887571 0.7000
 13  -2036.4829873205  -1.362415302746 1.89139559  0.02579318  0.4828349 0.7000
 14  -2038.5988598146  -2.115872494131 1.31453941  0.01854214  0.4352879 0.7000
 15  -2041.6460855742  -3.047225759595 0.91082158  0.01402228  0.3603339 0.7000
 16  -2045.3558629682  -3.709777393958 0.91739353  0.01056544  0.3257398 0.7000
 17  -2048.6820049308  -3.326141962585 4.62273037  0.05103116  0.3317243 0.7000
 18  -2050.6223165394  -1.940311608621 1.78844517  0.02051724  0.1924477 0.7000
 19  -2054.2192326586  -3.596916119262 1.28306174  0.01467820  0.1415037 0.7000
               *** Restarting incremental Fock matrix formation ***
                                   *** Resetting DIIS ***
 20  -2056.5810723618  -2.361839703182 3.06716491  0.03485472  0.0849658 0.0000

 WARNING: the maximum gradient error descreased on average only by a factor   1.1
          during the last 20 iterations

                      *** Initiating the TRAH-SCF procedure ***


TRAH GRIDX
----------

General Integration Accuracy     IntAcc      ... 3.067
Radial Grid Type                 RadialGrid  ... OptM3 with GC (2021)
Angular Grid (max. ang.)         AngularGrid ... 1 (Lebedev-50)
Angular grid pruning method      GridPruning ... 4 (adaptive)
Weight generation scheme         WeightScheme... Becke
Basis function cutoff            BFCut       ... 1.0000e-11
Integration weight cutoff        WCut        ... 1.0000e-14
Angular grids for H and He will be reduced by one unit
Partially contracted basis set               ... on
Rotationally invariant grid construction     ... off

Total number of grid points                  ...     9953
Total number of batches                      ...      171
Average number of points per batch           ...       58
Average number of grid points per atom       ...      369


TRAH GRID
---------

General Integration Accuracy     IntAcc      ... 3.467
Radial Grid Type                 RadialGrid  ... OptM3 with GC (2021)
Angular Grid (max. ang.)         AngularGrid ... 1 (Lebedev-50)
Angular grid pruning method      GridPruning ... 4 (adaptive)
Weight generation scheme         WeightScheme... Becke
Basis function cutoff            BFCut       ... 1.0000e-11
Integration weight cutoff        WCut        ... 1.0000e-14
Angular grids for H and He will be reduced by one unit
Partially contracted basis set               ... off
Rotationally invariant grid construction     ... off

Total number of grid points                  ...    24327
Total number of batches                      ...      393
Average number of points per batch           ...       61
Average number of grid points per atom       ...      901

 --------------------------------------------------------------------------------------------
   Iter.        energy            ||Error||_2        Shift      TRadius  Mac/Mic        Rej.
 --------------------------------------------------------------------------------------------
WARNING: 696 diagonal Hessian elements are negative!
    0      -2058.797773547044     4.839342e+00                     0.400 (TRAH MAcro)   No
WARNING : negative HOMO - LUMO gap : -1.650493
    0     dE    -1.299403e+00     3.011774e+00    -4.1548e+00      0.400 (TRAH MIcro)
    0     dE    -1.420665e+00     1.474074e+00    -6.9793e+00      0.400 (TRAH MIcro)
    0     dE    -1.449170e+00     6.533328e-01    -8.0332e+00      0.397 (TRAH MIcro)
    0     dE    -1.464990e+00     3.352669e-01    -8.1071e+00      0.400 (TRAH MIcro)
    0     dE    -1.459123e+00     1.797187e-01    -8.0778e+00      0.398 (TRAH MIcro)
    0     dE    -1.442411e+00     6.567893e-02    -8.0803e+00      0.392 (TRAH MIcro)
    0     dE    -1.435760e+00     1.591566e-02    -8.0811e+00      0.390 (TRAH MIcro)
    0     dE    -1.092122e+00     1.321885e-01    -1.1332e+01      0.279 (TRAH MIcro)
    0     dE    -1.092248e+00     7.997750e-02    -1.1334e+01      0.279 (TRAH MIcro)
    0     dE    -1.092381e+00     2.537987e-02    -1.1336e+01      0.279 (TRAH MIcro)
    0     dE    -1.092367e+00     1.495295e-02    -1.1336e+01      0.279 (TRAH MIcro)
    0     dE    -1.092355e+00     1.153313e-02    -1.1336e+01      0.279 (TRAH MIcro)
    0     dE    -1.092339e+00     7.594607e-03    -1.1336e+01      0.279 (TRAH MIcro)
WARNING: 430 diagonal Hessian elements are negative!
    1      -2059.878835967933     3.048870e+00                     0.480 (TRAH MAcro)   No
WARNING : negative HOMO - LUMO gap : -1.157765
    1     dE    -7.253769e-01     2.416895e+00    -1.2429e+00      0.409 (TRAH MIcro)
    1     dE    -1.098464e+00     9.846043e-01    -4.8963e+00      0.480 (TRAH MIcro)
    1     dE    -7.293429e-01     3.104831e-01    -6.9365e+00      0.309 (TRAH MIcro)
    1     dE    -7.295852e-01     1.496833e-01    -6.9527e+00      0.308 (TRAH MIcro)
    1     dE    -7.248849e-01     3.481148e-02    -6.9600e+00      0.306 (TRAH MIcro)
    1     dE    -7.245273e-01     1.872324e-02    -6.9607e+00      0.306 (TRAH MIcro)
    1     dE    -7.249359e-01     8.799306e-03    -6.9608e+00      0.306 (TRAH MIcro)
WARNING: 180 diagonal Hessian elements are negative!
    2      -2060.568356548850     1.797550e+00                     0.576 (TRAH MAcro)   No
WARNING : negative HOMO - LUMO gap : -0.619094
    2     dE    -3.768337e-01     2.105973e+00    -6.6297e-01      0.370 (TRAH MIcro)
    2     dE    -8.973128e-01     5.579733e-01    -3.1802e+00      0.576 (TRAH MIcro)
    2     dE    -9.188576e-01     1.741398e-01    -3.4154e+00      0.576 (TRAH MIcro)
    2     dE    -9.217212e-01     6.122720e-02    -3.4476e+00      0.576 (TRAH MIcro)
    2     dE    -9.220004e-01     2.111196e-02    -3.4485e+00      0.576 (TRAH MIcro)
    2     dE    -9.219185e-01     6.610244e-03    -3.4483e+00      0.576 (TRAH MIcro)
WARNING: 1 diagonal Hessian elements are negative!
    3      -2061.198986342685     7.996843e-01                     0.576 (TRAH MAcro)   No
WARNING : negative HOMO - LUMO gap : -0.010962
    3     dE    -9.369387e-02     1.258542e+00    -1.7849e-01      0.223 (TRAH MIcro)
    3     dE    -2.036364e-01     8.908282e-01    -3.3202e-01      0.476 (TRAH MIcro)
    3     dE    -2.803128e-01     2.405184e-01    -6.0245e-01      0.576 (TRAH MIcro)
    3     dE    -2.843365e-01     9.297057e-02    -6.1710e-01      0.576 (TRAH MIcro)
    3     dE    -2.851802e-01     4.879781e-02    -6.1225e-01      0.576 (TRAH MIcro)
    3     dE    -2.853642e-01     2.972800e-02    -6.1359e-01      0.576 (TRAH MIcro)
    3     dE    -2.854502e-01     1.333584e-02    -6.1759e-01      0.576 (TRAH MIcro)
    3     dE    -2.854638e-01     4.731305e-03    -6.1878e-01      0.576 (TRAH MIcro)
    4      -2061.429251646808     3.978656e-01                     0.691 (TRAH MAcro)   No
    4     dE    -1.016708e-02     3.742725e-01    -2.0281e-02      0.051 (TRAH MIcro)
    4     dE    -2.582989e-02     1.300600e-01    -5.0059e-02      0.179 (TRAH MIcro)
    4     dE    -2.741549e-02     6.523979e-02    -5.2747e-02      0.199 (TRAH MIcro)
    4     dE    -2.779445e-02     1.971641e-02    -5.3312e-02      0.207 (TRAH MIcro)
    4     dE    -2.788256e-02     1.375188e-02    -5.3425e-02      0.209 (TRAH MIcro)
    4     dE    -2.791518e-02     6.517773e-03    -5.3463e-02      0.210 (TRAH MIcro)
    5      -2061.458868089462     7.863978e-02                     0.829 (TRAH MAcro)   No
    5     dE    -4.585200e-04     8.861499e-02    -9.1692e-04      0.012 (TRAH MIcro)
    5     dE    -1.207578e-03     2.566679e-02    -2.4106e-03      0.044 (TRAH MIcro)
    5     dE    -1.263790e-03     8.636781e-03    -2.5221e-03      0.047 (TRAH MIcro)
    5     dE    -1.269677e-03     2.773164e-03    -2.5336e-03      0.048 (TRAH MIcro)
    6      -2061.460185853662     5.969300e-03                     0.995 (TRAH MAcro)   No
    6     dE    -1.145327e-06     1.849116e-02    -2.2907e-06      0.000 (TRAH MIcro)
    6     dE    -5.062766e-06     5.443670e-03    -1.0125e-05      0.002 (TRAH MIcro)
    6     dE    -5.929625e-06     2.058051e-03    -1.1859e-05      0.003 (TRAH MIcro)
    6     dE    -6.051141e-06     2.812827e-04    -1.2102e-05      0.003 (TRAH MIcro)
    7      -2061.460191960592     2.808862e-04                           (NR   MAcro)
    7     dE    -1.131274e-08     1.828810e-04                           (NR   MIcro)
    7     dE    -1.782493e-08     1.109880e-04                           (NR   MIcro)
    7     dE    -1.910841e-08     5.400901e-05                           (NR   MIcro)
    7     dE    -1.952684e-08     3.149171e-05                           (NR   MIcro)
    7     dE    -1.962732e-08     1.463852e-05                           (NR   MIcro)
    7     dE    -1.964992e-08     6.287490e-06                           (NR   MIcro)
    7     dE    -1.965494e-08     3.146966e-06                           (NR   MIcro)
    7     dE    -1.965621e-08     1.461420e-06                           (NR   MIcro)
    7     dE    -1.965646e-08     8.220884e-07                           (NR   MIcro)
    8      -2061.460191981780     1.090264e-06                           (NR   MAcro)
    8     dE    -1.254095e-13     6.489351e-07                           (NR   MIcro)
    9      -2061.460191981772     6.488527e-07                           (NR   MAcro)

               *****************************************************
               *                     SUCCESS                       *
               *           SCF CONVERGED AFTER  89 CYCLES          *
               *****************************************************

Old exchange energy                            =    -72.141938146 Eh
New exchange energy                            =    -72.141701539 Eh
Exchange energy change after final integration =      0.000236607 Eh
Total energy after final integration           =  -2061.459955375 Eh
Final COS-X integration done in                =     4.586 sec

----------------
TOTAL SCF ENERGY
----------------

Total Energy       :        -2061.45995538 Eh          -56095.17721 eV

Components:
Nuclear Repulsion  :         1824.56927482 Eh           49649.05408 eV
Electronic Energy  :        -3886.02923019 Eh         -105744.23129 eV
One Electron Energy:        -6538.30770692 Eh         -177916.39780 eV
Two Electron Energy:         2652.27847673 Eh           72172.16651 eV
Max COSX asymmetry :            0.00001783 Eh               0.00049 eV

Virial components:
Potential Energy   :        -4036.19913944 Eh         -109830.56226 eV
Kinetic Energy     :         1974.73918407 Eh           53735.38505 eV
Virial Ratio       :            2.04391505


DFT components:
N(Alpha)           :       81.999973044487 electrons
N(Beta)            :       81.999973044487 electrons
N(Total)           :      163.999946088973 electrons
E(X)               :      -96.280856301160 Eh       
E(C)               :       -7.758109148111 Eh       
E(XC)              :     -104.038965449271 Eh       
DFET-embed. en.    :        0.000000000000 Eh       

---------------
SCF CONVERGENCE
---------------

  Last Energy change         ...    7.7307e-12  Tolerance :   1.0000e-08
  Last Orbital Gradient      ...    6.4885e-07  Tolerance :   1.0000e-05
  Last Orbital Rotation      ...    3.2901e-07

             **** THE GBW FILE WAS UPDATED (reaction-2-cineb5_optts_Compound_1.gbw) ****
             **** DENSITY reaction-2-cineb5_optts_Compound_1.scfp WAS UPDATED ****
             **** ENERGY FILE WAS UPDATED (reaction-2-cineb5_optts_Compound_1.en.tmp) ****
             **** THE GBW FILE WAS UPDATED (reaction-2-cineb5_optts_Compound_1.gbw) ****
             **** DENSITY reaction-2-cineb5_optts_Compound_1.scfp WAS UPDATED ****
----------------
ORBITAL ENERGIES
----------------

  NO   OCC          E(Eh)            E(eV) 
   0   2.0000    -102.101806     -2778.3314 
   1   2.0000    -102.090101     -2778.0129 
   2   2.0000    -102.051187     -2776.9540 
   3   2.0000     -14.599507      -397.2728 
   4   2.0000     -10.422470      -283.6098 
   5   2.0000     -10.414056      -283.3809 
   6   2.0000     -10.398631      -282.9611 
   7   2.0000     -10.394902      -282.8597 
   8   2.0000     -10.388492      -282.6853 
   9   2.0000     -10.385592      -282.6063 
  10   2.0000     -10.383966      -282.5621 
  11   2.0000     -10.383717      -282.5553 
  12   2.0000     -10.381038      -282.4824 
  13   2.0000     -10.368122      -282.1309 
  14   2.0000     -10.366871      -282.0969 
  15   2.0000     -10.364800      -282.0405 
  16   2.0000     -10.353019      -281.7200 
  17   2.0000      -9.565134      -260.2805 
  18   2.0000      -9.555127      -260.0082 
  19   2.0000      -9.514150      -258.8932 
  20   2.0000      -7.251550      -197.3247 
  21   2.0000      -7.245925      -197.1716 
  22   2.0000      -7.245633      -197.1637 
  23   2.0000      -7.241863      -197.0611 
  24   2.0000      -7.235608      -196.8909 
  25   2.0000      -7.235103      -196.8772 
  26   2.0000      -7.198492      -195.8809 
  27   2.0000      -7.196629      -195.8302 
  28   2.0000      -7.195427      -195.7975 
  29   2.0000      -3.524818       -95.9152 
  30   2.0000      -2.176991       -59.2389 
  31   2.0000      -2.163581       -58.8740 
  32   2.0000      -2.136664       -58.1416 
  33   2.0000      -0.993237       -27.0273 
  34   2.0000      -0.885817       -24.1043 
  35   2.0000      -0.852058       -23.1857 
  36   2.0000      -0.818737       -22.2790 
  37   2.0000      -0.783016       -21.3070 
  38   2.0000      -0.744591       -20.2613 
  39   2.0000      -0.731977       -19.9181 
  40   2.0000      -0.691164       -18.8075 
  41   2.0000      -0.678461       -18.4619 
  42   2.0000      -0.650736       -17.7074 
  43   2.0000      -0.646108       -17.5815 
  44   2.0000      -0.637684       -17.3523 
  45   2.0000      -0.612383       -16.6638 
  46   2.0000      -0.582551       -15.8520 
  47   2.0000      -0.532994       -14.5035 
  48   2.0000      -0.521491       -14.1905 
  49   2.0000      -0.501794       -13.6545 
  50   2.0000      -0.467165       -12.7122 
  51   2.0000      -0.464809       -12.6481 
  52   2.0000      -0.434695       -11.8287 
  53   2.0000      -0.419104       -11.4044 
  54   2.0000      -0.412259       -11.2181 
  55   2.0000      -0.405093       -11.0231 
  56   2.0000      -0.391994       -10.6667 
  57   2.0000      -0.387739       -10.5509 
  58   2.0000      -0.368729       -10.0336 
  59   2.0000      -0.347586        -9.4583 
  60   2.0000      -0.345284        -9.3957 
  61   2.0000      -0.319485        -8.6936 
  62   2.0000      -0.313166        -8.5217 
  63   2.0000      -0.303005        -8.2452 
  64   2.0000      -0.297892        -8.1061 
  65   2.0000      -0.273329        -7.4377 
  66   2.0000      -0.263206        -7.1622 
  67   2.0000      -0.253147        -6.8885 
  68   2.0000      -0.238904        -6.5009 
  69   2.0000      -0.234604        -6.3839 
  70   2.0000      -0.228570        -6.2197 
  71   2.0000      -0.226888        -6.1739 
  72   2.0000      -0.189308        -5.1513 
  73   2.0000      -0.182427        -4.9641 
  74   2.0000      -0.170382        -4.6363 
  75   2.0000      -0.169071        -4.6007 
  76   2.0000      -0.164227        -4.4688 
  77   2.0000      -0.153177        -4.1682 
  78   2.0000      -0.148029        -4.0281 
  79   2.0000      -0.139675        -3.8008 
  80   2.0000      -0.128328        -3.4920 
  81   2.0000      -0.122999        -3.3470 
  82   0.0000       0.041313         1.1242 
  83   0.0000       0.053483         1.4553 
  84   0.0000       0.059096         1.6081 
  85   0.0000       0.098696         2.6857 
  86   0.0000       0.126752         3.4491 
  87   0.0000       0.176130         4.7927 
  88   0.0000       0.182231         4.9588 
  89   0.0000       0.207127         5.6362 
  90   0.0000       0.209119         5.6904 
  91   0.0000       0.214216         5.8291 
  92   0.0000       0.233772         6.3613 
  93   0.0000       0.235241         6.4012 
  94   0.0000       0.246748         6.7143 
  95   0.0000       0.255226         6.9450 
  96   0.0000       0.268635         7.3099 
  97   0.0000       0.276467         7.5231 
  98   0.0000       0.285225         7.7614 
  99   0.0000       0.303154         8.2493 
 100   0.0000       0.310993         8.4626 
 101   0.0000       0.315517         8.5857 
 102   0.0000       0.329717         8.9721 
 103   0.0000       0.342503         9.3200 
 104   0.0000       0.352397         9.5892 
 105   0.0000       0.355097         9.6627 
 106   0.0000       0.381376        10.3778 
 107   0.0000       0.392812        10.6889 
 108   0.0000       0.402670        10.9572 
 109   0.0000       0.410692        11.1755 
 110   0.0000       0.425337        11.5740 
 111   0.0000       0.437744        11.9116 
 112   0.0000       0.466111        12.6835 
 113   0.0000       0.484157        13.1746 
 114   0.0000       0.491927        13.3860 
 115   0.0000       0.516982        14.0678 
 116   0.0000       0.536083        14.5876 
 117   0.0000       0.548042        14.9130 
 118   0.0000       0.566703        15.4208 
 119   0.0000       0.579401        15.7663 
 120   0.0000       0.593879        16.1603 
 121   0.0000       0.598445        16.2845 
 122   0.0000       0.604475        16.4486 
 123   0.0000       0.609775        16.5928 
 124   0.0000       0.622910        16.9502 
 125   0.0000       0.624156        16.9842 
 126   0.0000       0.634718        17.2716 
 127   0.0000       0.643333        17.5060 
 128   0.0000       0.652167        17.7464 
 129   0.0000       0.659544        17.9471 
 130   0.0000       0.675821        18.3900 
 131   0.0000       0.678632        18.4665 
 132   0.0000       0.681053        18.5324 
 133   0.0000       0.685528        18.6542 
 134   0.0000       0.689751        18.7691 
 135   0.0000       0.698563        19.0089 
 136   0.0000       0.709543        19.3077 
 137   0.0000       0.720606        19.6087 
 138   0.0000       0.732076        19.9208 
 139   0.0000       0.733160        19.9503 
 140   0.0000       0.741007        20.1638 
 141   0.0000       0.751656        20.4536 
 142   0.0000       0.759238        20.6599 
 143   0.0000       0.767537        20.8858 
 144   0.0000       0.774309        21.0700 
 145   0.0000       0.783575        21.3222 
 146   0.0000       0.792534        21.5659 
 147   0.0000       0.811178        22.0733 
 148   0.0000       0.815537        22.1919 
 149   0.0000       0.830544        22.6003 
 150   0.0000       0.839845        22.8533 
 151   0.0000       0.855731        23.2856 
 152   0.0000       0.862419        23.4676 
 153   0.0000       0.881680        23.9917 
 154   0.0000       0.891997        24.2725 
 155   0.0000       0.908951        24.7338 
 156   0.0000       0.923616        25.1329 
 157   0.0000       0.936235        25.4763 
 158   0.0000       0.941799        25.6277 
 159   0.0000       0.957901        26.0658 
 160   0.0000       0.973838        26.4995 
 161   0.0000       0.984370        26.7861 
 162   0.0000       1.000227        27.2175 
 163   0.0000       1.008336        27.4382 
 164   0.0000       1.018923        27.7263 
 165   0.0000       1.026574        27.9345 
 166   0.0000       1.031546        28.0698 
 167   0.0000       1.036526        28.2053 
 168   0.0000       1.039019        28.2731 
 169   0.0000       1.046901        28.4876 
 170   0.0000       1.050814        28.5941 
 171   0.0000       1.057984        28.7892 
 172   0.0000       1.061097        28.8739 
 173   0.0000       1.062997        28.9256 
 174   0.0000       1.069902        29.1135 
 175   0.0000       1.073698        29.2168 
 176   0.0000       1.077443        29.3187 
 177   0.0000       1.083510        29.4838 
 178   0.0000       1.087389        29.5894 
 179   0.0000       1.091069        29.6895 
 180   0.0000       1.103244        30.0208 
 181   0.0000       1.107852        30.1462 
 182   0.0000       1.118390        30.4329 
 183   0.0000       1.120397        30.4876 
 184   0.0000       1.131661        30.7941 
 185   0.0000       1.136292        30.9201 
 186   0.0000       1.140201        31.0264 
 187   0.0000       1.148042        31.2398 
 188   0.0000       1.152994        31.3746 
 189   0.0000       1.177350        32.0373 
 190   0.0000       1.187897        32.3243 
 191   0.0000       1.200171        32.6583 
 192   0.0000       1.201940        32.7065 
 193   0.0000       1.212495        32.9937 
 194   0.0000       1.225329        33.3429 
 195   0.0000       1.226824        33.3836 
 196   0.0000       1.243569        33.8392 
 197   0.0000       1.254834        34.1458 
 198   0.0000       1.274330        34.6763 
 199   0.0000       1.282342        34.8943 
 200   0.0000       1.299239        35.3541 
 201   0.0000       1.310979        35.6736 
 202   0.0000       1.320357        35.9287 
 203   0.0000       1.328414        36.1480 
 204   0.0000       1.344577        36.5878 
 205   0.0000       1.359027        36.9810 
 206   0.0000       1.383135        37.6370 
 207   0.0000       1.385241        37.6943 
 208   0.0000       1.409733        38.3608 
 209   0.0000       1.427292        38.8386 
 210   0.0000       1.454446        39.5775 
 211   0.0000       1.472780        40.0764 
 212   0.0000       1.481266        40.3073 
 213   0.0000       1.495840        40.7039 
 214   0.0000       1.508554        41.0498 
 215   0.0000       1.529847        41.6292 
 216   0.0000       1.544468        42.0271 
 217   0.0000       1.556757        42.3615 
 218   0.0000       1.569662        42.7127 
 219   0.0000       1.579826        42.9893 
 220   0.0000       1.587321        43.1932 
 221   0.0000       1.605806        43.6962 
 222   0.0000       1.618017        44.0285 
 223   0.0000       1.623006        44.1642 
 224   0.0000       1.633895        44.4605 
 225   0.0000       1.655358        45.0446 
 226   0.0000       1.668759        45.4092 
 227   0.0000       1.689333        45.9691 
 228   0.0000       1.710996        46.5586 
 229   0.0000       1.744697        47.4756 
 230   0.0000       1.764786        48.0223 
 231   0.0000       1.850116        50.3442 
 232   0.0000       1.885377        51.3037 
 233   0.0000       1.896147        51.5968 
 234   0.0000       1.908478        51.9323 
 235   0.0000       1.917316        52.1728 
 236   0.0000       1.963132        53.4195 
 237   0.0000       1.972237        53.6673 
 238   0.0000       1.980595        53.8947 
 239   0.0000       2.020181        54.9719 
 240   0.0000       2.046512        55.6884 
 241   0.0000       2.063898        56.1615 
 242   0.0000       2.073794        56.4308 
 243   0.0000       2.101772        57.1921 
 244   0.0000       2.133526        58.0562 
 245   0.0000       2.146750        58.4160 
 246   0.0000       2.153317        58.5947 
 247   0.0000       2.189057        59.5673 
 248   0.0000       2.252166        61.2845 
 249   0.0000       2.253753        61.3277 
 250   0.0000       2.269199        61.7481 
 251   0.0000       2.299622        62.5759 
 252   0.0000       2.325916        63.2914 
 253   0.0000       2.342819        63.7514 
 254   0.0000       2.344182        63.7884 
 255   0.0000       2.360358        64.2286 
 256   0.0000       2.378856        64.7320 
 257   0.0000       2.389855        65.0313 
 258   0.0000       2.403720        65.4085 
 259   0.0000       2.408496        65.5385 
 260   0.0000       2.415435        65.7273 
 261   0.0000       2.432084        66.1804 
 262   0.0000       2.452511        66.7362 
 263   0.0000       2.486391        67.6582 
 264   0.0000       2.496599        67.9359 
 265   0.0000       2.562388        69.7261 
 266   0.0000       2.565765        69.8180 
 267   0.0000       2.575323        70.0781 
 268   0.0000       2.580773        70.2264 
 269   0.0000       2.585140        70.3452 
 270   0.0000       2.602266        70.8113 
 271   0.0000       2.605355        70.8953 
 272   0.0000       2.638657        71.8015 
 273   0.0000       2.654991        72.2460 
 274   0.0000       2.685222        73.0686 
 275   0.0000       2.710649        73.7605 
 276   0.0000       2.732332        74.3505 
 277   0.0000       2.739972        74.5584 
 278   0.0000       2.753583        74.9288 
 279   0.0000       2.773176        75.4620 
 280   0.0000       2.774267        75.4917 
 281   0.0000       2.779597        75.6367 
 282   0.0000       2.820199        76.7415 
 283   0.0000       2.827608        76.9431 
 284   0.0000       2.862845        77.9020 
 285   0.0000       2.868797        78.0639 
 286   0.0000       2.899599        78.9021 
 287   0.0000       2.943175        80.0879 
 288   0.0000       2.955149        80.4137 
 289   0.0000       2.975023        80.9545 
 290   0.0000       3.014254        82.0220 
 291   0.0000       3.031365        82.4876 
 292   0.0000       3.101470        84.3953 
 293   0.0000       3.151916        85.7680 
 294   0.0000       3.171679        86.3058 
 295   0.0000       3.449402        93.8630 
 296   0.0000       3.554892        96.7335 
 297   0.0000       3.617898        98.4480 
 298   0.0000      13.304791       362.0418 
 299   0.0000      13.528280       368.1232 
 300   0.0000      13.620158       370.6234 
 301   0.0000      13.792288       375.3072 
 302   0.0000      13.844229       376.7206 
 303   0.0000      13.889848       377.9620 
 304   0.0000      14.080632       383.1535 
 305   0.0000      14.193917       386.2361 
 306   0.0000      14.226054       387.1106 
 307   0.0000      14.280224       388.5846 
 308   0.0000      14.408020       392.0622 
 309   0.0000      14.532316       395.4444 
 310   0.0000      14.563529       396.2938 
 311   0.0000      19.619950       533.8860 
 312   0.0000      51.710797      1407.1223 

                    ********************************
                    * MULLIKEN POPULATION ANALYSIS *
                    ********************************

-----------------------
MULLIKEN ATOMIC CHARGES
-----------------------
   0 Pd:    0.196849
   1 Cl:   -0.280497
   2 Cl:   -0.539797
   3 Cl:   -0.372998
   4 N :   -0.554769
   5 C :    0.050876
   6 C :   -0.325505
   7 C :   -0.150340
   8 C :    0.356664
   9 C :    0.039836
  10 H :    0.213451
  11 H :    0.278873
  12 H :    0.221833
  13 C :   -0.007607
  14 C :   -0.295625
  15 C :   -0.260315
  16 C :    0.103344
  17 H :    0.197776
  18 H :    0.198334
  19 C :   -0.272320
  20 C :   -0.306865
  21 C :   -0.223569
  22 C :   -0.198936
  23 H :    0.195266
  24 H :    0.198915
  25 H :    0.299860
  26 H :    0.237266
Sum of atomic charges:   -1.0000000

--------------------------------
MULLIKEN REDUCED ORBITAL CHARGES
--------------------------------
  0 Pds       :     2.459824  s :     2.459824
[...]
   75     -2061.539116   -30.207787    0.002667  0.000517
 ** NOTE ** -> element pd will be treated as ni
 ** NOTE ** -> element pd will be treated as ni
 ** NOTE ** -> element pd will be treated as ni
 ** NOTE ** -> element pd will be treated as ni
   76     -2061.539199   -30.260409    0.002651  0.000514
 ** NOTE ** -> element pd will be treated as ni
 ** NOTE ** -> element pd will be treated as ni
 ** NOTE ** -> element pd will be treated as ni
 ** NOTE ** -> element pd will be treated as ni
   77     -2061.539282   -30.312515    0.002630  0.000512
 ** NOTE ** -> element pd will be treated as ni
 ** NOTE ** -> element pd will be treated as ni
 ** NOTE ** -> element pd will be treated as ni
 ** NOTE ** -> element pd will be treated as ni
   78     -2061.539365   -30.364012    0.002607  0.000508
 ** NOTE ** -> element pd will be treated as ni
 ** NOTE ** -> element pd will be treated as ni
 ** NOTE ** -> element pd will be treated as ni
 ** NOTE ** -> element pd will be treated as ni
   79     -2061.539446   -30.415057    0.002579  0.000505
 ** NOTE ** -> element pd will be treated as ni
 ** NOTE ** -> element pd will be treated as ni
 ** NOTE ** -> element pd will be treated as ni
 ** NOTE ** -> element pd will be treated as ni
   80     -2061.539526   -30.465499    0.002548  0.000502
 ** NOTE ** -> element pd will be treated as ni
 ** NOTE ** -> element pd will be treated as ni
 ** NOTE ** -> element pd will be treated as ni
 ** NOTE ** -> element pd will be treated as ni
   81     -2061.539606   -30.515509    0.002513  0.000499
 ** NOTE ** -> element pd will be treated as ni
 ** NOTE ** -> element pd will be treated as ni
 ** NOTE ** -> element pd will be treated as ni
 ** NOTE ** -> element pd will be treated as ni
   82     -2061.539685   -30.564876    0.002474  0.000495
 ** NOTE ** -> element pd will be treated as ni
 ** NOTE ** -> element pd will be treated as ni
 ** NOTE ** -> element pd will be treated as ni
 ** NOTE ** -> element pd will be treated as ni
   83     -2061.539763   -30.613879    0.002432  0.000491
 ** NOTE ** -> element pd will be treated as ni
 ** NOTE ** -> element pd will be treated as ni
 ** NOTE ** -> element pd will be treated as ni
 ** NOTE ** -> element pd will be treated as ni
   84     -2061.539840   -30.662279    0.002387  0.000487
 ** NOTE ** -> element pd will be treated as ni
 ** NOTE ** -> element pd will be treated as ni
 ** NOTE ** -> element pd will be treated as ni
 ** NOTE ** -> element pd will be treated as ni
   85     -2061.539916   -30.710310    0.002339  0.000483
 ** NOTE ** -> element pd will be treated as ni
 ** NOTE ** -> element pd will be treated as ni
 ** NOTE ** -> element pd will be treated as ni
 ** NOTE ** -> element pd will be treated as ni
   86     -2061.539992   -30.757777    0.002288  0.000479
 ** NOTE ** -> element pd will be treated as ni
 ** NOTE ** -> element pd will be treated as ni
 ** NOTE ** -> element pd will be treated as ni
 ** NOTE ** -> element pd will be treated as ni
   87     -2061.540067   -30.804877    0.002235  0.000475
 ** NOTE ** -> element pd will be treated as ni
 ** NOTE ** -> element pd will be treated as ni
 ** NOTE ** -> element pd will be treated as ni
 ** NOTE ** -> element pd will be treated as ni
   88     -2061.540141   -30.851413    0.002180  0.000470
 ** NOTE ** -> element pd will be treated as ni
 ** NOTE ** -> element pd will be treated as ni
 ** NOTE ** -> element pd will be treated as ni
 ** NOTE ** -> element pd will be treated as ni
   89     -2061.540215   -30.897562    0.002123  0.000466
 ** NOTE ** -> element pd will be treated as ni
 ** NOTE ** -> element pd will be treated as ni
 ** NOTE ** -> element pd will be treated as ni
 ** NOTE ** -> element pd will be treated as ni
   90     -2061.540288   -30.943207    0.002121  0.000461
 ** NOTE ** -> element pd will be treated as ni
 ** NOTE ** -> element pd will be treated as ni
 ** NOTE ** -> element pd will be treated as ni
 ** NOTE ** -> element pd will be treated as ni
   91     -2061.540360   -30.988468    0.002121  0.000457
 ** NOTE ** -> element pd will be treated as ni
 ** NOTE ** -> element pd will be treated as ni
 ** NOTE ** -> element pd will be treated as ni
 ** NOTE ** -> element pd will be treated as ni
   92     -2061.540431   -31.033106    0.002122  0.000452
 ** NOTE ** -> element pd will be treated as ni
 ** NOTE ** -> element pd will be treated as ni
 ** NOTE ** -> element pd will be treated as ni
 ** NOTE ** -> element pd will be treated as ni
   93     -2061.540501   -31.077375    0.002120  0.000447
 ** NOTE ** -> element pd will be treated as ni
 ** NOTE ** -> element pd will be treated as ni
 ** NOTE ** -> element pd will be treated as ni
 ** NOTE ** -> element pd will be treated as ni
   94     -2061.540571   -31.121182    0.002119  0.000441
 ** NOTE ** -> element pd will be treated as ni
 ** NOTE ** -> element pd will be treated as ni
 ** NOTE ** -> element pd will be treated as ni
 ** NOTE ** -> element pd will be treated as ni
   95     -2061.540640   -31.164560    0.002114  0.000438
 ** NOTE ** -> element pd will be treated as ni
 ** NOTE ** -> element pd will be treated as ni
 ** NOTE ** -> element pd will be treated as ni
 ** NOTE ** -> element pd will be treated as ni
   96     -2061.540708   -31.207295    0.002110  0.000431
 ** NOTE ** -> element pd will be treated as ni
 ** NOTE ** -> element pd will be treated as ni
 ** NOTE ** -> element pd will be treated as ni
 ** NOTE ** -> element pd will be treated as ni
   97     -2061.540776   -31.249725    0.002103  0.000427
 ** NOTE ** -> element pd will be treated as ni
 ** NOTE ** -> element pd will be treated as ni
 ** NOTE ** -> element pd will be treated as ni
 ** NOTE ** -> element pd will be treated as ni
   98     -2061.540843   -31.291551    0.002095  0.000421
 ** NOTE ** -> element pd will be treated as ni
 ** NOTE ** -> element pd will be treated as ni
 ** NOTE ** -> element pd will be treated as ni
 ** NOTE ** -> element pd will be treated as ni
   99     -2061.540909   -31.332887    0.002084  0.000415
 ** NOTE ** -> element pd will be treated as ni
 ** NOTE ** -> element pd will be treated as ni
 ** NOTE ** -> element pd will be treated as ni
 ** NOTE ** -> element pd will be treated as ni
  100     -2061.540974   -31.373822    0.002073  0.000410
 ** NOTE ** -> element pd will be treated as ni
 ** NOTE ** -> element pd will be treated as ni
 ** NOTE ** -> element pd will be treated as ni
 ** NOTE ** -> element pd will be treated as ni
  101     -2061.541038   -31.414175    0.002059  0.000404
 ** NOTE ** -> element pd will be treated as ni
 ** NOTE ** -> element pd will be treated as ni
 ** NOTE ** -> element pd will be treated as ni
 ** NOTE ** -> element pd will be treated as ni
  102     -2061.541102   -31.454049    0.002043  0.000398
 ** NOTE ** -> element pd will be treated as ni
 ** NOTE ** -> element pd will be treated as ni
 ** NOTE ** -> element pd will be treated as ni
 ** NOTE ** -> element pd will be treated as ni
  103     -2061.541164   -31.493334    0.002025  0.000392
 ** NOTE ** -> element pd will be treated as ni
 ** NOTE ** -> element pd will be treated as ni
 ** NOTE ** -> element pd will be treated as ni
 ** NOTE ** -> element pd will be treated as ni
  104     -2061.541226   -31.532138    0.002006  0.000387
 ** NOTE ** -> element pd will be treated as ni
 ** NOTE ** -> element pd will be treated as ni
 ** NOTE ** -> element pd will be treated as ni
 ** NOTE ** -> element pd will be treated as ni
  105     -2061.541287   -31.570324    0.001984  0.000380

                      ***********************HURRAY********************
                      ***            THE IRC HAS CONVERGED          ***
                      *************************************************


---------------------------------------------------------------
                       IRC PATH SUMMARY              
---------------------------------------------------------------
All gradients are in Eh/Bohr.

Step        E(Eh)      dE(kcal/mol)  max(|G|)   RMS(G) 
   1     -2061.541287   -31.570324    0.001984  0.000380
   2     -2061.541226   -31.532138    0.002006  0.000387
   3     -2061.541164   -31.493334    0.002025  0.000392
   4     -2061.541102   -31.454049    0.002043  0.000398
   5     -2061.541038   -31.414175    0.002059  0.000404
   6     -2061.540974   -31.373822    0.002073  0.000410
   7     -2061.540909   -31.332887    0.002084  0.000415
   8     -2061.540843   -31.291551    0.002095  0.000421
   9     -2061.540776   -31.249725    0.002103  0.000427
  10     -2061.540708   -31.207295    0.002110  0.000431
  11     -2061.540640   -31.164560    0.002114  0.000438
  12     -2061.540571   -31.121182    0.002119  0.000441
  13     -2061.540501   -31.077375    0.002120  0.000447
  14     -2061.540431   -31.033106    0.002122  0.000452
  15     -2061.540360   -30.988468    0.002121  0.000457
  16     -2061.540288   -30.943207    0.002121  0.000461
  17     -2061.540215   -30.897562    0.002123  0.000466
  18     -2061.540141   -30.851413    0.002180  0.000470
  19     -2061.540067   -30.804877    0.002235  0.000475
  20     -2061.539992   -30.757777    0.002288  0.000479
  21     -2061.539916   -30.710310    0.002339  0.000483
  22     -2061.539840   -30.662279    0.002387  0.000487
  23     -2061.539763   -30.613879    0.002432  0.000491
  24     -2061.539685   -30.564876    0.002474  0.000495
  25     -2061.539606   -30.515509    0.002513  0.000499
  26     -2061.539526   -30.465499    0.002548  0.000502
  27     -2061.539446   -30.415057    0.002579  0.000505
  28     -2061.539365   -30.364012    0.002607  0.000508
  29     -2061.539282   -30.312515    0.002630  0.000512
  30     -2061.539199   -30.260409    0.002651  0.000514
  31     -2061.539116   -30.207787    0.002667  0.000517
  32     -2061.539031   -30.154489    0.002679  0.000519
  33     -2061.538945   -30.100694    0.002688  0.000523
  34     -2061.538858   -30.046199    0.002694  0.000525
  35     -2061.538770   -29.991122    0.002696  0.000527
  36     -2061.538682   -29.935451    0.002696  0.000530
  37     -2061.538592   -29.879071    0.002692  0.000532
  38     -2061.538509   -29.827431    0.002686  0.000606
  39     -2061.538431   -29.778352    0.002678  0.000658
  40     -2061.538268   -29.675636    0.002662  0.000605
  41     -2061.538089   -29.563736    0.002636  0.000579
  42     -2061.537900   -29.445057    0.002609  0.000570
  43     -2061.537704   -29.322155    0.002689  0.000573
  44     -2061.537503   -29.195867    0.002824  0.000582
  45     -2061.537297   -29.066800    0.002976  0.000595
  46     -2061.537088   -28.935345    0.003140  0.000612
  47     -2061.536874   -28.801281    0.003317  0.000628
  48     -2061.536657   -28.664989    0.003502  0.000649
  49     -2061.536435   -28.525932    0.003695  0.000669
  50     -2061.536210   -28.384635    0.003890  0.000692
  51     -2061.535980   -28.240468    0.004089  0.000713
  52     -2061.535747   -28.093899    0.004283  0.000738
  53     -2061.535508   -27.944306    0.004478  0.000761
  54     -2061.535266   -27.792031    0.004663  0.000786
  55     -2061.535018   -27.636562    0.004844  0.000809
  56     -2061.534765   -27.478071    0.005011  0.000832
  57     -2061.534507   -27.316126    0.005169  0.000854
  58     -2061.534244   -27.151056    0.005309  0.000876
  59     -2061.533975   -26.982186    0.005434  0.000895
  60     -2061.533701   -26.809847    0.005540  0.000914
  61     -2061.533420   -26.633702    0.005630  0.000931
  62     -2061.533134   -26.454611    0.005698  0.000952
  63     -2061.532866   -26.286035    0.005751  0.001072
  64     -2061.532720   -26.194453    0.005773  0.001345
  65     -2061.532214   -25.876710    0.005817  0.001143
  66     -2061.531657   -25.527263    0.005843  0.001124
  67     -2061.531035   -25.137061    0.005836  0.001074
  68     -2061.530385   -24.729001    0.005821  0.001092
  69     -2061.529699   -24.298699    0.005795  0.001094
  70     -2061.528989   -23.853575    0.005770  0.001116
  71     -2061.528252   -23.390935    0.005751  0.001130
  72     -2061.527491   -22.913003    0.005745  0.001153
  73     -2061.526703   -22.418970    0.005760  0.001175
  74     -2061.525890   -21.908386    0.005794  0.001201
  75     -2061.525050   -21.381766    0.005857  0.001231
  76     -2061.524183   -20.837575    0.005941  0.001263
  77     -2061.523290   -20.276875    0.006053  0.001301
  78     -2061.522362   -19.694995    0.006181  0.001333
  79     -2061.521410   -19.097509    0.006330  0.001381
  80     -2061.520423   -18.478210    0.006486  0.001421
  81     -2061.519408   -17.841337    0.006652  0.001472
  82     -2061.518359   -17.182657    0.006810  0.001521
  83     -2061.517278   -16.504308    0.006962  0.001579
  84     -2061.516160   -15.802736    0.007088  0.001636
  85     -2061.515011   -15.082016    0.007194  0.001705
  86     -2061.513818   -14.333240    0.007251  0.001756
  87     -2061.512595   -13.566100    0.007276  0.001825
  88     -2061.511333   -12.774077    0.007245  0.001873
  89     -2061.510047   -11.966796    0.007621  0.001929
  90     -2061.508730   -11.140729    0.008057  0.001959
  91     -2061.507397   -10.304332    0.008410  0.001982
  92     -2061.506061   -9.465878    0.008606  0.001988
  93     -2061.504734   -8.632999    0.008667  0.001973
  94     -2061.503429   -7.814274    0.008535  0.001933
  95     -2061.502166   -7.021597    0.008322  0.001879
  96     -2061.500958   -6.263537    0.007874  0.001809
  97     -2061.499826   -5.553584    0.007541  0.001746
  98     -2061.498776   -4.894328    0.006858  0.001669
  99     -2061.497820   -4.294289    0.006601  0.001609
 100     -2061.496947   -3.746946    0.006021  0.001527
 101     -2061.496159   -3.251946    0.005730  0.001453
 102     -2061.495440   -2.801108    0.005276  0.001359
 103     -2061.494767   -2.378433    0.005124  0.001229
 104     -2061.494126   -1.976346    0.004579  0.001127
 105     -2061.493535   -1.605343    0.005712  0.001232
 106     -2061.493232   -1.415673    0.006520  0.001746
 107     -2061.490976    0.000000    0.000121  0.000052 <= TS
 108     -2061.491815   -0.526358    0.006381  0.001340
 109     -2061.491998   -0.641093    0.003850  0.000944
 110     -2061.492124   -0.720516    0.003912  0.000796
 111     -2061.492314   -0.839425    0.003910  0.000674
 112     -2061.492513   -0.964164    0.003803  0.000660
 113     -2061.492718   -1.092994    0.003917  0.000681
 114     -2061.492936   -1.230032    0.004023  0.000732
 115     -2061.493175   -1.379638    0.004301  0.000793
 116     -2061.493442   -1.547204    0.004575  0.000887
 117     -2061.493743   -1.735846    0.004957  0.000989
 118     -2061.494089   -1.952978    0.005759  0.001137
 119     -2061.494482   -2.199728    0.006831  0.001286
 120     -2061.494939   -2.486503    0.008077  0.001490
 121     -2061.495458   -2.812202    0.009440  0.001681
 122     -2061.496058   -3.188530    0.010936  0.001931
 123     -2061.496729   -3.609981    0.012449  0.002145
 124     -2061.497487   -4.085805    0.013944  0.002399
 125     -2061.498312   -4.603380    0.015257  0.002583
 126     -2061.499208   -5.165200    0.016342  0.002772
 127     -2061.500147   -5.754819    0.017115  0.002883
 128     -2061.501126   -6.369070    0.017590  0.002975
 129     -2061.502123   -6.994576    0.017750  0.003009
 130     -2061.503127   -7.624889    0.017598  0.003011
 131     -2061.504128   -8.252682    0.017094  0.002977
 132     -2061.505111   -8.869599    0.016291  0.002909
 133     -2061.506066   -9.468812    0.015235  0.002815
 134     -2061.506986   -10.046283    0.014018  0.002706
 135     -2061.507868   -10.599669    0.012748  0.002594
 136     -2061.508712   -11.129550    0.011543  0.002485
 137     -2061.509520   -11.636250    0.010478  0.002386
 138     -2061.510293   -12.121556    0.009593  0.002299
 139     -2061.511030   -12.584100    0.008889  0.002209
 140     -2061.511740   -13.029279    0.008295  0.002127
 141     -2061.512420   -13.456095    0.007790  0.002039
 142     -2061.513078   -13.868953    0.007331  0.001974
 143     -2061.513707   -14.263543    0.006936  0.001887
 144     -2061.514318   -14.647205    0.006557  0.001837
 145     -2061.514901   -15.012685    0.006230  0.001751
 146     -2061.515470   -15.369920    0.005907  0.001701
 147     -2061.516013   -15.710972    0.005623  0.001630
 148     -2061.516543   -16.043302    0.005386  0.001591
 149     -2061.517048   -16.360269    0.005228  0.001518
 150     -2061.517543   -16.671000    0.005074  0.001477
 151     -2061.518017   -16.968241    0.004919  0.001417
 152     -2061.518479   -17.258109    0.004769  0.001386
 153     -2061.518920   -17.534984    0.004621  0.001323
 154     -2061.519353   -17.806766    0.004476  0.001288
 155     -2061.519768   -18.067046    0.004333  0.001237
 156     -2061.520173   -18.321017    0.004194  0.001211
 157     -2061.520559   -18.563640    0.004059  0.001156
 158     -2061.520939   -18.802120    0.003926  0.001124
 159     -2061.521304   -19.030781    0.003796  0.001080
 160     -2061.521659   -19.253685    0.003668  0.001056
 161     -2061.521999   -19.467048    0.003546  0.001009
 162     -2061.522332   -19.676268    0.003423  0.000983
 163     -2061.522652   -19.876686    0.003306  0.000943
 164     -2061.522963   -20.072027    0.003190  0.000915
 165     -2061.523263   -20.260287    0.003077  0.000880
 166     -2061.523555   -20.443268    0.002966  0.000852
 167     -2061.523836   -20.619973    0.002858  0.000821
 168     -2061.524109   -20.791333    0.002751  0.000793
 169     -2061.524373   -20.957006    0.002647  0.000765
 170     -2061.524629   -21.117491    0.002545  0.000738
 171     -2061.524877   -21.272800    0.002444  0.000712
 172     -2061.525116   -21.423121    0.002346  0.000687
 173     -2061.525348   -21.568597    0.002248  0.000662
 174     -2061.525573   -21.709444    0.002154  0.000639
 175     -2061.525789   -21.845511    0.002061  0.000615
 176     -2061.526000   -21.977622    0.001969  0.000595
 177     -2061.526203   -22.104771    0.001882  0.000571
 178     -2061.526400   -22.228720    0.001788  0.000557
 179     -2061.526589   -22.347138    0.001714  0.000531
 180     -2061.526774   -22.463275    0.001611  0.000514
 181     -2061.526952   -22.575196    0.001563  0.000499

Timings for individual modules:

Sum of individual times         ...    26588.601 sec (= 443.143 min)
GTO integral calculation        ...      772.028 sec (=  12.867 min)   2.9 %
SCF iterations                  ...    22104.068 sec (= 368.401 min)  83.1 %
SCF Gradient evaluation         ...     3712.505 sec (=  61.875 min)  14.0 %
================================================================================

cite the ECPs for Pd [Def2-ECP] as follows:
Ce-Yb(ecp-28): M. Dolg, H. Stoll, H.Preuss, J. Chem. Phys., 1989, 90, 1730-1734.
Y-Cd(ecp-28), Hf-Hg(ecp-46): D. Andrae,U. Haeussermann, M. Dolg, H. Stoll, H. Preuss, Theor. Chim. Acta, 1990, 77, 123-141.
In-Sb(ecp-28), Tl-Bi(ecp-46): B. Metz, H. Stoll, M. Dolg, J. Chem. Phys., 2000, 113, 2563-2569.
Te-Xe(ecp-28), Po-Rn(ecp-46): K. A. Peterson, D. Figgen, E. Goll, H. Stoll, M. Dolg, J. Chem. Phys., 2003, 119, 11113-11123.
Rb(ecp-28), Cs(ecp-46): T. Leininger, A. Nicklass, W. Kuechle, H. Stoll, M. Dolg, A. Bergner, Chem. Phys. Lett., 1996, 255, 274-280.
Sr(ecp-28), Ba(ecp-46): M. Kaupp, P. V. Schleyer, H. Stoll and H. Preuss, J. Chem. Phys., 1991, 94, 1360-1366.
La(ecp-46): M. Dolg, H. Stoll, A. Savin, H. Preuss, Theor. Chim. Acta, 1989, 75, 173-194.
Lu(ecp-28): X. Cao, M. Dolg, J. Chem. Phys., 2001, 115, 7348-7355.

ECP parameters for Pd [Def2-ECP] have been obtained from:
TURBOMOLE (7.0.2)

----- Orbital basis set information -----
Your calculation utilizes the basis: def2-SVP
   F. Weigend and R. Ahlrichs, Phys. Chem. Chem. Phys. 7, 3297 (2005).

                             ****ORCA TERMINATED NORMALLY****
TOTAL RUN TIME: 0 days 8 hours 5 minutes 1 seconds 44 msec
