
                                 *****************
                                 * O   R   C   A *
                                 *****************

                                            #,                                       
                                            ###                                      
                                            ####                                     
                                            #####                                    
                                            ######                                   
                                           ########,                                 
                                     ,,################,,,,,                         
                               ,,#################################,,                 
                          ,,##########################################,,             
                       ,#########################################, ''#####,          
                    ,#############################################,,   '####,        
                  ,##################################################,,,,####,       
                ,###########''''           ''''###############################       
              ,#####''   ,,,,##########,,,,          '''####'''          '####       
            ,##' ,,,,###########################,,,                        '##       
           ' ,,###''''                  '''############,,,                           
         ,,##''                                '''############,,,,        ,,,,,,###''
      ,#''                                            '''#######################'''  
     '                                                          ''''####''''         
             ,#######,   #######,   ,#######,      ##                                
            ,#'     '#,  ##    ##  ,#'     '#,    #''#        ######   ,####,        
            ##       ##  ##   ,#'  ##            #'  '#       #        #'  '#        
            ##       ##  #######   ##           ,######,      #####,   #    #        
            '#,     ,#'  ##    ##  '#,     ,#' ,#      #,         ##   #,  ,#        
             '#######'   ##     ##  '#######'  #'      '#     #####' # '####'        



                  #######################################################
                  #                        -***-                        #
                  #          Department of theory and spectroscopy      #
                  #    Directorship and core code : Frank Neese         #
                  #        Max Planck Institute fuer Kohlenforschung    #
                  #                Kaiser Wilhelm Platz 1               #
                  #                 D-45470 Muelheim/Ruhr               #
                  #                      Germany                        #
                  #                                                     #
                  #                  All rights reserved                #
                  #                        -***-                        #
                  #######################################################


                         Program Version 5.0.4 -  RELEASE  -


 With contributions from (in alphabetic order):
   Daniel Aravena         : Magnetic Suceptibility
   Michael Atanasov       : Ab Initio Ligand Field Theory (pilot matlab implementation)
   Alexander A. Auer      : GIAO ZORA, VPT2 properties, NMR spectrum
   Ute Becker             : Parallelization
   Giovanni Bistoni       : ED, misc. LED, open-shell LED, HFLD
   Martin Brehm           : Molecular dynamics
   Dmytro Bykov           : SCF Hessian
   Vijay G. Chilkuri      : MRCI spin determinant printing, contributions to CSF-ICE
   Dipayan Datta          : RHF DLPNO-CCSD density
   Achintya Kumar Dutta   : EOM-CC, STEOM-CC
   Dmitry Ganyushin       : Spin-Orbit,Spin-Spin,Magnetic field MRCI
   Miquel Garcia          : C-PCM and meta-GGA Hessian, CC/C-PCM, Gaussian charge scheme
   Yang Guo               : DLPNO-NEVPT2, F12-NEVPT2, CIM, IAO-localization
   Andreas Hansen         : Spin unrestricted coupled pair/coupled cluster methods
   Benjamin Helmich-Paris : MC-RPA, TRAH-SCF, COSX integrals
   Lee Huntington         : MR-EOM, pCC
   Robert Izsak           : Overlap fitted RIJCOSX, COSX-SCS-MP3, EOM
   Marcus Kettner         : VPT2
   Christian Kollmar      : KDIIS, OOCD, Brueckner-CCSD(T), CCSD density, CASPT2, CASPT2-K
   Simone Kossmann        : Meta GGA functionals, TD-DFT gradient, OOMP2, MP2 Hessian
   Martin Krupicka        : Initial AUTO-CI
   Lucas Lang             : DCDCAS
   Marvin Lechner         : AUTO-CI (C++ implementation), FIC-MRCC
   Dagmar Lenk            : GEPOL surface, SMD
   Dimitrios Liakos       : Extrapolation schemes; Compound Job, initial MDCI parallelization
   Dimitrios Manganas     : Further ROCIS development; embedding schemes
   Dimitrios Pantazis     : SARC Basis sets
   Anastasios Papadopoulos: AUTO-CI, single reference methods and gradients
   Taras Petrenko         : DFT Hessian,TD-DFT gradient, ASA, ECA, R-Raman, ABS, FL, XAS/XES, NRVS
   Peter Pinski           : DLPNO-MP2, DLPNO-MP2 Gradient
   Christoph Reimann      : Effective Core Potentials
   Marius Retegan         : Local ZFS, SOC
   Christoph Riplinger    : Optimizer, TS searches, QM/MM, DLPNO-CCSD(T), (RO)-DLPNO pert. Triples
   Tobias Risthaus        : Range-separated hybrids, TD-DFT gradient, RPA, STAB
   Michael Roemelt        : Original ROCIS implementation
   Masaaki Saitow         : Open-shell DLPNO-CCSD energy and density
   Barbara Sandhoefer     : DKH picture change effects
   Avijit Sen             : IP-ROCIS
   Kantharuban Sivalingam : CASSCF convergence, NEVPT2, FIC-MRCI
   Bernardo de Souza      : ESD, SOC TD-DFT
   Georgi Stoychev        : AutoAux, RI-MP2 NMR, DLPNO-MP2 response
   Willem Van den Heuvel  : Paramagnetic NMR
   Boris Wezisla          : Elementary symmetry handling
   Frank Wennmohs         : Technical directorship


 We gratefully acknowledge several colleagues who have allowed us to
 interface, adapt or use parts of their codes:
   Stefan Grimme, W. Hujo, H. Kruse, P. Pracht,  : VdW corrections, initial TS optimization,
                  C. Bannwarth, S. Ehlert          DFT functionals, gCP, sTDA/sTD-DF
   Ed Valeev, F. Pavosevic, A. Kumar             : LibInt (2-el integral package), F12 methods
   Garnet Chan, S. Sharma, J. Yang, R. Olivares  : DMRG
   Ulf Ekstrom                                   : XCFun DFT Library
   Mihaly Kallay                                 : mrcc  (arbitrary order and MRCC methods)
   Jiri Pittner, Ondrej Demel                    : Mk-CCSD
   Frank Weinhold                                : gennbo (NPA and NBO analysis)
   Christopher J. Cramer and Donald G. Truhlar   : smd solvation model
   Lars Goerigk                                  : TD-DFT with DH, B97 family of functionals
   V. Asgeirsson, H. Jonsson                     : NEB implementation
   FAccTs GmbH                                   : IRC, NEB, NEB-TS, DLPNO-Multilevel, CI-OPT
                                                   MM, QMMM, 2- and 3-layer-ONIOM, Crystal-QMMM,
                                                   LR-CPCM, SF, NACMEs, symmetry and pop. for TD-DFT,
                                                   nearIR, NL-DFT gradient (VV10), updates on ESD,
                                                   ML-optimized integration grids
   S Lehtola, MJT Oliveira, MAL Marques          : LibXC Library
   Liviu Ungur et al                             : ANISO software


 Your calculation uses the libint2 library for the computation of 2-el integrals
 For citations please refer to: http://libint.valeyev.net

 Your ORCA version has been built with support for libXC version: 5.1.0
 For citations please refer to: https://tddft.org/programs/libxc/

 This ORCA versions uses:
   CBLAS   interface :  Fast vector & matrix operations
   LAPACKE interface :  Fast linear algebra routines
   SCALAPACK package :  Parallel linear algebra routines
   Shared memory     :  Shared parallel matrices
   BLAS/LAPACK       :  OpenBLAS 0.3.15  USE64BITINT DYNAMIC_ARCH NO_AFFINITY SkylakeX SINGLE_THREADED
        Core in use  :  SkylakeX
   Copyright (c) 2011-2014, The OpenBLAS Project




***************************************
The coordinates will be read from file: IEIP_ts_guess.xyz
***************************************




################################################################################


                                COMPOUND JOB MainJOB 
Basename: reaction-0-ieip_optts_Compound_0

################################################################################

================================================================================
                                       INPUT FILE
================================================================================
NAME = reaction-0-ieip_optts_Compound_0.inp
|  1> %pal nprocs 8 end 
|  2>   
|  3>  *xyzfile 0 1 IEIP_ts_guess.xyz 
|  4>   
|  5> 
|  6>                          ****END OF INPUT****
================================================================================


***************************************
The coordinates will be read from file: IEIP_ts_guess.xyz
***************************************


================================================================================

cite the ECPs for Pd [Def2-ECP] as follows:
Ce-Yb(ecp-28): M. Dolg, H. Stoll, H.Preuss, J. Chem. Phys., 1989, 90, 1730-1734.
Y-Cd(ecp-28), Hf-Hg(ecp-46): D. Andrae,U. Haeussermann, M. Dolg, H. Stoll, H. Preuss, Theor. Chim. Acta, 1990, 77, 123-141.
In-Sb(ecp-28), Tl-Bi(ecp-46): B. Metz, H. Stoll, M. Dolg, J. Chem. Phys., 2000, 113, 2563-2569.
Te-Xe(ecp-28), Po-Rn(ecp-46): K. A. Peterson, D. Figgen, E. Goll, H. Stoll, M. Dolg, J. Chem. Phys., 2003, 119, 11113-11123.
Rb(ecp-28), Cs(ecp-46): T. Leininger, A. Nicklass, W. Kuechle, H. Stoll, M. Dolg, A. Bergner, Chem. Phys. Lett., 1996, 255, 274-280.
Sr(ecp-28), Ba(ecp-46): M. Kaupp, P. V. Schleyer, H. Stoll and H. Preuss, J. Chem. Phys., 1991, 94, 1360-1366.
La(ecp-46): M. Dolg, H. Stoll, A. Savin, H. Preuss, Theor. Chim. Acta, 1989, 75, 173-194.
Lu(ecp-28): X. Cao, M. Dolg, J. Chem. Phys., 2001, 115, 7348-7355.

ECP parameters for Pd [Def2-ECP] have been obtained from:
TURBOMOLE (7.0.2)

----- Orbital basis set information -----
Your calculation utilizes the basis: def2-SVP
   F. Weigend and R. Ahlrichs, Phys. Chem. Chem. Phys. 7, 3297 (2005).



################################################################################


                                COMPOUND JOB  1 
Basename: reaction-0-ieip_optts_Compound_1
NOTE: please remember that MaxCore and PAL settings will be ignored.

################################################################################

================================================================================
                                       INPUT FILE
================================================================================
NAME = reaction-0-ieip_optts_Compound_1.inp
|  1>   
|  2>    
|  3>   ! PBEh-3c OptTS Freq pal8 
|  4>    
|  5>   %geom 
|  6>    calc_hess true 
|  7>    recalc_hess 20 
|  8>    maxiter 600 
|  9>   end  
| 10>    
| 11> 
| 12>                          ****END OF INPUT****
================================================================================
Your calculation utilizes the geometrical counterpoise correction gCP
Please cite in your paper:
H.Kruse, S. Grimme J.Chem.Phys., 136, (2012), 154101 
   

Your calculation utilizes the atom-pairwise dispersion correction
with the Becke-Johnson damping scheme (D3BJ)
Cite in your paper:
S.Grimme, S.Ehrlich, L.Goerigk, J Comput Chem, (2011), 32, 1456–1465 
S.Grimme, J.Antony, S.Ehrlich and H.Krieg, J.Chem.Phys., 132, (2010), 154104 
   

Your calculation employs the composite approach PBEh-3c.
Please cite in your paper:
S. Grimme, J. G. Brandenburg, C. Bannwarth, A. Hansen J.Chem.Phys., 143, (2015), 054107 
   

================================================================================

cite the ECPs for Pd [Def2-ECP] as follows:
Ce-Yb(ecp-28): M. Dolg, H. Stoll, H.Preuss, J. Chem. Phys., 1989, 90, 1730-1734.
Y-Cd(ecp-28), Hf-Hg(ecp-46): D. Andrae,U. Haeussermann, M. Dolg, H. Stoll, H. Preuss, Theor. Chim. Acta, 1990, 77, 123-141.
In-Sb(ecp-28), Tl-Bi(ecp-46): B. Metz, H. Stoll, M. Dolg, J. Chem. Phys., 2000, 113, 2563-2569.
Te-Xe(ecp-28), Po-Rn(ecp-46): K. A. Peterson, D. Figgen, E. Goll, H. Stoll, M. Dolg, J. Chem. Phys., 2003, 119, 11113-11123.
Rb(ecp-28), Cs(ecp-46): T. Leininger, A. Nicklass, W. Kuechle, H. Stoll, M. Dolg, A. Bergner, Chem. Phys. Lett., 1996, 255, 274-280.
Sr(ecp-28), Ba(ecp-46): M. Kaupp, P. V. Schleyer, H. Stoll and H. Preuss, J. Chem. Phys., 1991, 94, 1360-1366.
La(ecp-46): M. Dolg, H. Stoll, A. Savin, H. Preuss, Theor. Chim. Acta, 1989, 75, 173-194.
Lu(ecp-28): X. Cao, M. Dolg, J. Chem. Phys., 2001, 115, 7348-7355.

ECP parameters for Pd [Def2-ECP] have been obtained from:
TURBOMOLE (7.0.2)

----- Orbital basis set information -----
Your calculation utilizes the basis: def2-mSVP

----- AuxJ basis set information -----
Your calculation utilizes the auxiliary basis: def2/J
   F. Weigend, Phys. Chem. Chem. Phys. 8, 1057 (2006).

================================================================================
                                        WARNINGS
                       Please study these warnings very carefully!
================================================================================


WARNING: Geometry Optimization
  ===> : Switching off AutoStart
         For restart on a previous wavefunction, please use MOREAD

INFO   : the flag for use of the SHARK integral package has been found!


                       *****************************
                       * Geometry Optimization Run *
                       *****************************

Geometry optimization settings:
Update method            Update   .... Bofill
Choice of coordinates    CoordSys .... Z-matrix Internals
Initial Hessian          InHess   .... Almoef's Model

Convergence Tolerances:
Energy Change            TolE     ....  5.0000e-06 Eh
Max. Gradient            TolMAXG  ....  3.0000e-04 Eh/bohr
RMS Gradient             TolRMSG  ....  1.0000e-04 Eh/bohr
Max. Displacement        TolMAXD  ....  4.0000e-03 bohr
RMS Displacement         TolRMSD  ....  2.0000e-03 bohr
Strict Convergence                ....  False
------------------------------------------------------------------------------
                        ORCA OPTIMIZATION COORDINATE SETUP
------------------------------------------------------------------------------

The optimization will be done in new redundant internal coordinates
Making redundant internal coordinates   ...  (new redundants) done
Following TS mode number                ...     0
Evaluating the initial hessian          ...  (Is done on the fly) done
Evaluating the coordinates              ...  done
Calculating the B-matrix                .... done
Calculating the G-matrix                .... done
Diagonalizing the G-matrix              .... done
The first mode is                       ....  116
The number of degrees of freedom        ....   57

    -----------------------------------------------------------------
                    Redundant Internal Coordinates


    -----------------------------------------------------------------
         Definition                    Initial Value    d2E/dq (diagonal element)
    -----------------------------------------------------------------
      1. B(C   1,C   0)                  1.3867         0.000000   
      2. B(C   2,C   1)                  1.3878         0.000000   
      3. B(C   3,C   2)                  1.3900         0.000000   
      4. B(C   4,C   0)                  1.4167         0.000000   
      5. B(C   5,C   4)                  1.4102         0.000000   
      6. B(C   5,C   3)                  1.3832         0.000000   
      7. B(H   6,C   0)                  1.0843         0.000000   
      8. B(H   7,C   1)                  1.0830         0.000000   
      9. B(H   8,C   2)                  1.0837         0.000000   
     10. B(H   9,C   5)                  1.0819         0.000000   
     11. B(H  10,C   3)                  1.0817         0.000000   
     12. B(Pd 11,C   4)                  2.1550         0.000000   
     13. B(O  12,Pd 11)                  2.1542         0.000000   
     14. B(O  13,Pd 11)                  2.0202         0.000000   
     15. B(O  14,Pd 11)                  2.0013         0.000000   
     16. B(C  15,O  14)                  1.2616         0.000000   
     17. B(C  15,Pd 11)                  2.7809         0.000000   
     18. B(O  16,C  15)                  1.2418         0.000000   
     19. B(H  17,O  16)                  1.3256         0.000000   
     20. B(H  17,C   4)                  1.3586         0.000000   
     21. B(C  18,O  13)                  1.2649         0.000000   
     22. B(C  18,O  12)                  1.2472         0.000000   
     23. B(C  18,Pd 11)                  2.4160         0.000000   
     24. B(H  19,C  18)                  1.0984         0.000000   
     25. B(H  20,C  15)                  1.0944         0.000000   
     26. A(C   1,C   0,C   4)          122.0693         0.000000   
     27. A(C   4,C   0,H   6)          120.4225         0.000000   
     28. A(C   1,C   0,H   6)          117.4938         0.000000   
     29. A(C   0,C   1,H   7)          120.1739         0.000000   
     30. A(C   2,C   1,H   7)          120.0571         0.000000   
     31. A(C   0,C   1,C   2)          119.7225         0.000000   
     32. A(C   1,C   2,C   3)          119.9542         0.000000   
     33. A(C   3,C   2,H   8)          120.0084         0.000000   
     34. A(C   1,C   2,H   8)          120.0242         0.000000   
     35. A(C   2,C   3,H  10)          119.9888         0.000000   
     36. A(C   2,C   3,C   5)          119.9754         0.000000   
     37. A(C   5,C   3,H  10)          119.9754         0.000000   
     38. A(Pd 11,C   4,H  17)           82.2353         0.000000   
     39. A(C   5,C   4,Pd 11)          107.1790         0.000000   
     40. A(C   5,C   4,H  17)          120.4348         0.000000   
     41. A(C   0,C   4,Pd 11)          103.3112         0.000000   
     42. A(C   0,C   4,H  17)          118.3309         0.000000   
     43. A(C   0,C   4,C   5)          116.0709         0.000000   
     44. A(C   3,C   5,C   4)          122.0969         0.000000   
     45. A(C   3,C   5,H   9)          118.5969         0.000000   
     46. A(C   4,C   5,H   9)          119.2405         0.000000   
     47. A(O  12,Pd 11,O  13)           62.5365         0.000000   
     48. A(O  14,Pd 11,C  15)           24.2727         0.000000   
     49. A(O  14,Pd 11,C  18)          140.0360         0.000000   
     50. A(O  13,Pd 11,C  15)          157.1200         0.000000   
     51. A(C   4,Pd 11,C  15)           75.0920         0.000000   
     52. A(O  13,Pd 11,O  14)          170.3502         0.000000   
     53. A(O  12,Pd 11,O  14)          109.1286         0.000000   
     54. A(C   4,Pd 11,O  14)           89.2121         0.000000   
     55. A(C  15,Pd 11,C  18)          152.4713         0.000000   
     56. A(O  13,Pd 11,C  18)           31.5530         0.000000   
     57. A(C   4,Pd 11,O  13)           99.9923         0.000000   
     58. A(O  12,Pd 11,C  18)           31.0015         0.000000   
     59. A(C   4,Pd 11,C  18)          130.1716         0.000000   
     60. A(C   4,Pd 11,O  12)          158.2602         0.000000   
     61. A(O  12,Pd 11,C  15)          126.1123         0.000000   
     62. A(Pd 11,O  12,C  18)           86.1679         0.000000   
     63. A(Pd 11,O  13,C  18)           91.7510         0.000000   
     64. A(Pd 11,O  14,C  15)          115.0278         0.000000   
     65. A(Pd 11,C  15,O  16)           86.5147         0.000000   
     66. A(Pd 11,C  15,O  14)           40.6995         0.000000   
     67. A(O  16,C  15,H  20)          116.9218         0.000000   
     68. A(O  14,C  15,H  20)          116.3783         0.000000   
     69. A(Pd 11,C  15,H  20)          156.0715         0.000000   
     70. A(O  14,C  15,O  16)          126.6701         0.000000   
     71. A(C  15,O  16,H  17)          106.0211         0.000000   
     72. A(C   4,H  17,O  16)          161.0946         0.000000   
     73. A(O  13,C  18,H  19)          119.0821         0.000000   
     74. A(O  12,C  18,H  19)          121.4396         0.000000   
     75. A(Pd 11,C  18,H  19)          174.9893         0.000000   
     76. A(O  12,C  18,O  13)          119.4764         0.000000   
     77. A(Pd 11,C  18,O  13)           56.6960         0.000000   
     78. A(Pd 11,C  18,O  12)           62.8307         0.000000   
     79. D(C   2,C   1,C   0,C   4)     -0.6059         0.000000   
     80. D(C   2,C   1,C   0,H   6)    178.0169         0.000000   
     81. D(H   7,C   1,C   0,C   4)   -178.1261         0.000000   
     82. D(H   7,C   1,C   0,H   6)      0.4967         0.000000   
     83. D(C   3,C   2,C   1,H   7)   -179.3441         0.000000   
     84. D(H   8,C   2,C   1,C   0)   -175.5486         0.000000   
     85. D(C   3,C   2,C   1,C   0)      3.1328         0.000000   
     86. D(H   8,C   2,C   1,H   7)      1.9745         0.000000   
     87. D(H  10,C   3,C   2,H   8)     -1.2705         0.000000   
     88. D(H  10,C   3,C   2,C   1)   -179.9521         0.000000   
     89. D(C   5,C   3,C   2,H   8)    175.9016         0.000000   
     90. D(C   5,C   3,C   2,C   1)     -2.7800         0.000000   
     91. D(Pd 11,C   4,C   0,C   1)    114.8149         0.000000   
     92. D(C   5,C   4,C   0,C   1)     -2.1633         0.000000   
     93. D(C   5,C   4,C   0,H   6)    179.2534         0.000000   
     94. D(H  17,C   4,C   0,H   6)     24.5028         0.000000   
     95. D(H  17,C   4,C   0,C   1)   -156.9139         0.000000   
     96. D(Pd 11,C   4,C   0,H   6)    -63.7684         0.000000   
     97. D(H   9,C   5,C   4,H  17)    -26.2715         0.000000   
     98. D(H   9,C   5,C   4,C   0)    179.5439         0.000000   
     99. D(C   3,C   5,C   4,H  17)    156.7185         0.000000   
    100. D(C   3,C   5,C   4,Pd 11)   -112.2721         0.000000   
    101. D(H   9,C   5,C   3,C   2)   -177.1639         0.000000   
    102. D(C   3,C   5,C   4,C   0)      2.5339         0.000000   
    103. D(C   4,C   5,C   3,H  10)    177.0371         0.000000   
    104. D(H   9,C   5,C   4,Pd 11)     64.7379         0.000000   
    105. D(C   4,C   5,C   3,C   2)     -0.1354         0.000000   
    106. D(H   9,C   5,C   3,H  10)      0.0086         0.000000   
    107. D(O  12,Pd 11,C   4,C   5)     44.4905         0.000000   
    108. D(O  12,Pd 11,C   4,C   0)    -78.5922         0.000000   
    109. D(O  12,Pd 11,C   4,H  17)    164.0261         0.000000   
    110. D(C  18,Pd 11,C   4,H  17)    139.7302         0.000000   
    111. D(C  18,Pd 11,C   4,C   5)     20.1946         0.000000   
    112. D(C  18,Pd 11,C   4,C   0)   -102.8881         0.000000   
    113. D(C  15,Pd 11,C   4,H  17)    -27.7440         0.000000   
    114. D(C  15,Pd 11,C   4,C   5)   -147.2796         0.000000   
    115. D(C  15,Pd 11,C   4,C   0)     89.6377         0.000000   
    116. D(O  14,Pd 11,C   4,H  17)    -47.7292         0.000000   
    117. D(O  14,Pd 11,C   4,C   5)   -167.2648         0.000000   
    118. D(O  14,Pd 11,C   4,C   0)     69.6525         0.000000   
    119. D(O  13,Pd 11,C   4,H  17)    129.3569         0.000000   
    120. D(O  13,Pd 11,C   4,C   5)      9.8213         0.000000   
    121. D(O  13,Pd 11,C   4,C   0)   -113.2614         0.000000   
    122. D(C  18,O  12,Pd 11,C   4)    -37.6187         0.000000   
    123. D(C  18,O  12,Pd 11,O  14)    176.2297         0.000000   
    124. D(C  18,O  12,Pd 11,O  13)      1.5318         0.000000   
    125. D(C  18,O  12,Pd 11,C  15)    156.5040         0.000000   
    126. D(C  18,O  13,Pd 11,C  15)   -119.9810         0.000000   
    127. D(C  18,O  13,Pd 11,O  14)    -32.8959         0.000000   
    128. D(C  18,O  13,Pd 11,O  12)     -1.5077         0.000000   
    129. D(C  18,O  13,Pd 11,C   4)    164.7561         0.000000   
    130. D(C  15,O  14,Pd 11,C  18)   -135.4257         0.000000   
    131. D(C  15,O  14,Pd 11,O  13)   -109.1638         0.000000   
    132. D(C  15,O  14,Pd 11,O  12)   -138.4483         0.000000   
    133. D(C  15,O  14,Pd 11,C   4)     53.4589         0.000000   
    134. D(O  16,C  15,Pd 11,O  13)    -32.7901         0.000000   
    135. D(O  16,C  15,Pd 11,O  12)   -137.8886         0.000000   
    136. D(O  16,C  15,Pd 11,C   4)     47.4778         0.000000   
    137. D(O  14,C  15,Pd 11,C  18)     77.2476         0.000000   
    138. D(O  14,C  15,Pd 11,O  13)    155.9684         0.000000   
    139. D(O  14,C  15,Pd 11,O  12)     50.8699         0.000000   
    140. D(O  16,C  15,Pd 11,O  14)    171.2415         0.000000   
    141. D(O  14,C  15,Pd 11,C   4)   -123.7637         0.000000   
    142. D(O  16,C  15,O  14,Pd 11)    -10.9231         0.000000   
    143. D(H  20,C  15,Pd 11,C  18)     57.3410         0.000000   
    144. D(H  20,C  15,Pd 11,O  14)    -19.9066         0.000000   
    145. D(H  20,C  15,Pd 11,O  13)    136.0618         0.000000   
    146. D(H  20,C  15,Pd 11,O  12)     30.9633         0.000000   
    147. D(H  20,C  15,Pd 11,C   4)   -143.6703         0.000000   
    148. D(H  20,C  15,O  14,Pd 11)    171.1324         0.000000   
    149. D(O  16,C  15,Pd 11,C  18)   -111.5109         0.000000   
    150. D(H  17,O  16,C  15,H  20)    148.7261         0.000000   
    151. D(H  17,O  16,C  15,O  14)    -29.2086         0.000000   
    152. D(H  17,O  16,C  15,Pd 11)    -36.3197         0.000000   
    153. D(C   4,H  17,O  16,C  15)      3.7730         0.000000   
    154. D(O  16,H  17,C   4,Pd 11)     45.8475         0.000000   
    155. D(O  16,H  17,C   4,C   5)    151.2514         0.000000   
    156. D(O  16,H  17,C   4,C   0)    -55.1331         0.000000   
    157. D(O  12,C  18,O  13,Pd 11)      2.6549         0.000000   
    158. D(H  19,C  18,O  12,Pd 11)    176.9925         0.000000   
    159. D(O  13,C  18,O  12,Pd 11)     -2.4940         0.000000   
    160. D(H  19,C  18,Pd 11,O  14)   -154.7188         0.000000   
    161. D(H  19,C  18,Pd 11,O  13)     33.4296         0.000000   
    162. D(H  19,C  18,Pd 11,O  12)   -149.1682         0.000000   
    163. D(H  19,C  18,Pd 11,C   4)     13.6212         0.000000   
    164. D(O  13,C  18,Pd 11,C  15)    133.2267         0.000000   
    165. D(O  13,C  18,Pd 11,O  14)    171.8515         0.000000   
    166. D(O  13,C  18,Pd 11,O  12)    177.4021         0.000000   
    167. D(O  13,C  18,Pd 11,C   4)    -19.8084         0.000000   
    168. D(H  19,C  18,Pd 11,C  15)    166.6564         0.000000   
    169. D(O  12,C  18,Pd 11,C  15)    -44.1754         0.000000   
    170. D(O  12,C  18,Pd 11,O  14)     -5.5506         0.000000   
    171. D(O  12,C  18,Pd 11,O  13)   -177.4021         0.000000   
    172. D(H  19,C  18,O  13,Pd 11)   -176.8438         0.000000   
    173. D(O  12,C  18,Pd 11,C   4)    162.7895         0.000000   
    -----------------------------------------------------------------

Number of atoms                         .... 21
Number of degrees of freedom            .... 173

         *************************************************************
         *                GEOMETRY OPTIMIZATION CYCLE   1            *
         *************************************************************
---------------------------------
CARTESIAN COORDINATES (ANGSTROEM)
---------------------------------
  C     -1.481690    0.233460   -0.407290
  C     -2.004650   -0.798240   -1.172260
  C     -1.615370   -2.106440   -0.921350
  C     -0.755530   -2.384240    0.134850
  C     -0.561410   -0.001380    0.643850
  C     -0.243230   -1.351310    0.898960
  H     -1.785280    1.244320   -0.655640
  H     -2.682940   -0.581130   -1.988200
  H     -1.964410   -2.908300   -1.561390
  H      0.460220   -1.588880    1.685930
  H     -0.451130   -3.403620    0.330450
  Pd     1.239710    0.956890   -0.050240
  O      3.060260    1.223580   -1.170620
  O      2.421230   -0.661500   -0.306970
  O      0.356620    2.735440    0.199130
  C     -0.129880    2.933650    1.346190
  O     -0.279900    2.089130    2.244200
  H     -0.456830    0.928350    1.628940
  C      3.247150    0.002730   -0.997270
  H      4.110790   -0.512960   -1.438400
  H     -0.483200    3.947960    1.555850

----------------------------
CARTESIAN COORDINATES (A.U.)
----------------------------
  NO LB      ZA    FRAG     MASS         X           Y           Z
   0 C     6.0000    0    12.011   -2.799988    0.441175   -0.769667
   1 C     6.0000    0    12.011   -3.788239   -1.508455   -2.215250
   2 C     6.0000    0    12.011   -3.052607   -3.980595   -1.741099
   3 C     6.0000    0    12.011   -1.427745   -4.505561    0.254830
   4 C     6.0000    0    12.011   -1.060911   -0.002608    1.216700
   5 C     6.0000    0    12.011   -0.459638   -2.553606    1.698788
   6 H     1.0000    0     1.008   -3.373690    2.351424   -1.238980
   7 H     1.0000    0     1.008   -5.070022   -1.098177   -3.757153
   8 H     1.0000    0     1.008   -3.712197   -5.495891   -2.950599
   9 H     1.0000    0     1.008    0.869690   -3.002548    3.185946
  10 H     1.0000    0     1.008   -0.852512   -6.431910    0.624460
  11 Pd   18.0000*   0   106.400    2.342712    1.808260   -0.094940
  12 O     8.0000    0    15.999    5.783053    2.312231   -2.212151
  13 O     8.0000    0    15.999    4.575462   -1.250054   -0.580089
  14 O     8.0000    0    15.999    0.673914    5.169232    0.376301
  15 C     6.0000    0    12.011   -0.245438    5.543795    2.543930
  16 O     8.0000    0    15.999   -0.528934    3.947884    4.240923
  17 H     1.0000    0     1.008   -0.863284    1.754327    3.078250
  18 C     6.0000    0    12.011    6.136224    0.005159   -1.884567
  19 H     1.0000    0     1.008    7.768267   -0.969354   -2.718182
  20 H     1.0000    0     1.008   -0.913116    7.460563    2.940130
* core charge reduced due to ECP

--------------------------------
INTERNAL COORDINATES (ANGSTROEM)
--------------------------------
 C      0   0   0     0.000000000000     0.00000000     0.00000000
 C      1   0   0     1.386748409950     0.00000000     0.00000000
 C      2   1   0     1.387761502024   119.72245606     0.00000000
 C      3   2   1     1.389984210558   119.95419989     3.13277210
 C      1   2   3     1.416672299299   122.06926425   359.39409136
 C      4   3   2     1.383206335656   119.97535034   357.21998899
 H      1   2   3     1.084288960656   117.49384428   178.01689561
 H      2   1   3     1.083038392579   120.17392685   182.47976821
 H      3   2   1     1.083724864899   120.02422854   184.45136344
 H      6   4   3     1.081944170602   118.59688786   182.83610854
 H      4   3   2     1.081690484566   119.98879900   180.04791369
 Pd     5   1   2     2.155011734400   103.31117628   114.81488646
 O     12   5   1     2.154246319017   158.26015691   281.40775555
 O     12   5   1     2.020169793705    99.99228785   246.73860077
 O     12   5   1     2.001317927642    89.21211435    69.65245756
 C     15  12   5     1.261632314781   115.02783571    53.45886929
 O     16  15  12     1.241830097437   126.67011856   349.07689033
 H     17  16  15     1.325616573863   106.02113623   330.79144142
 C     13  12   5     1.247177941234    86.16785961   322.38127618
 H     19  13  12     1.098365104417   121.43957198   176.99250752
 H     16  15  12     1.094356940902   116.37831996   171.13243254

---------------------------
INTERNAL COORDINATES (A.U.)
---------------------------
 C      0   0   0     0.000000000000     0.00000000     0.00000000
 C      1   0   0     2.620574711457     0.00000000     0.00000000
 C      2   1   0     2.622489178025   119.72245606     0.00000000
 C      3   2   1     2.626689488429   119.95419989     3.13277210
 C      1   2   3     2.677122667187   122.06926425   359.39409136
 C      4   3   2     2.613881161095   119.97535034   357.21998899
 H      1   2   3     2.049009185674   117.49384428   178.01689561
 H      2   1   3     2.046645954497   120.17392685   182.47976821
 H      3   2   1     2.047943199180   120.02422854   184.45136344
 H      6   4   3     2.044578174631   118.59688786   182.83610854
 H      4   3   2     2.044098777498   119.98879900   180.04791369
 Pd     5   1   2     4.072381993402   103.31117628   114.81488646
 O     12   5   1     4.070935567951   158.26015691   281.40775555
 O     12   5   1     3.817567654124    99.99228785   246.73860077
 O     12   5   1     3.781942790150    89.21211435    69.65245756
 C     15  12   5     2.384139556641   115.02783571    53.45886929
 O     16  15  12     2.346718789016   126.67011856   349.07689033
 H     17  16  15     2.505052283188   106.02113623   330.79144142
 C     13  12   5     2.356824749199    86.16785961   322.38127618
 H     19  13  12     2.075609242403   121.43957198   176.99250752
 H     16  15  12     2.068034911060   116.37831996   171.13243254

---------------------
BASIS SET INFORMATION
---------------------
There are 4 groups of distinct atoms

 Group   1 Type C   : 8s4p1d contracted to 4s2p1d pattern {5111/31/1}
 Group   2 Type H   : 4s contracted to 2s pattern {31}
 Group   3 Type Pd  : 7s6p5d1f contracted to 5s3p2d1f pattern {31111/411/41/1}
 Group   4 Type O   : 8s4p1d contracted to 4s2p1d pattern {5111/31/1}

Atom   0C    basis set group =>   1
Atom   1C    basis set group =>   1
Atom   2C    basis set group =>   1
Atom   3C    basis set group =>   1
Atom   4C    basis set group =>   1
Atom   5C    basis set group =>   1
Atom   6H    basis set group =>   2
Atom   7H    basis set group =>   2
Atom   8H    basis set group =>   2
Atom   9H    basis set group =>   2
Atom  10H    basis set group =>   2
Atom  11Pd   basis set group =>   3
Atom  12O    basis set group =>   4
Atom  13O    basis set group =>   4
Atom  14O    basis set group =>   4
Atom  15C    basis set group =>   1
Atom  16O    basis set group =>   4
Atom  17H    basis set group =>   2
Atom  18C    basis set group =>   1
Atom  19H    basis set group =>   2
Atom  20H    basis set group =>   2
---------------------------------
AUXILIARY/J BASIS SET INFORMATION
---------------------------------
There are 4 groups of distinct atoms

 Group   1 Type C   : 12s5p4d2f1g contracted to 6s4p3d1f1g pattern {711111/2111/211/2/1}
 Group   2 Type H   : 5s2p1d contracted to 3s1p1d pattern {311/2/1}
 Group   3 Type Pd  : 11s5p5d3f3g contracted to 8s5p5d2f3g pattern {41111111/11111/11111/21/111}
 Group   4 Type O   : 12s5p4d2f1g contracted to 6s4p3d1f1g pattern {711111/2111/211/2/1}

Atom   0C    basis set group =>   1
Atom   1C    basis set group =>   1
Atom   2C    basis set group =>   1
Atom   3C    basis set group =>   1
Atom   4C    basis set group =>   1
Atom   5C    basis set group =>   1
Atom   6H    basis set group =>   2
Atom   7H    basis set group =>   2
Atom   8H    basis set group =>   2
Atom   9H    basis set group =>   2
Atom  10H    basis set group =>   2
Atom  11Pd   basis set group =>   3
Atom  12O    basis set group =>   4
Atom  13O    basis set group =>   4
Atom  14O    basis set group =>   4
Atom  15C    basis set group =>   1
Atom  16O    basis set group =>   4
Atom  17H    basis set group =>   2
Atom  18C    basis set group =>   1
Atom  19H    basis set group =>   2
Atom  20H    basis set group =>   2
-------------------------
ECP PARAMETER INFORMATION
-------------------------

 Group 1, Type Pd ECP Def2-ECP (replacing 28 core electrons, lmax=3)

Atom  11Pd   ECP group =>   1



           ************************************************************
           *        Program running with 8 parallel MPI-processes     *
           *              working on a common directory               *
           ************************************************************
------------------------------------------------------------------------------
                           ORCA GTO INTEGRAL CALCULATION
                           -- RI-GTO INTEGRALS CHOSEN --
------------------------------------------------------------------------------
------------------------------------------------------------------------------
                   ___                                                        
                  /   \      - P O W E R E D   B Y -                         
                 /     \                                                     
                 |  |  |   _    _      __       _____    __    __             
                 |  |  |  | |  | |    /  \     |  _  \  |  |  /  |          
                  \  \/   | |  | |   /    \    | | | |  |  | /  /          
                 / \  \   | |__| |  /  /\  \   | |_| |  |  |/  /          
                |  |  |   |  __  | /  /__\  \  |    /   |      \           
                |  |  |   | |  | | |   __   |  |    \   |  |\   \          
                \     /   | |  | | |  |  |  |  | |\  \  |  | \   \       
                 \___/    |_|  |_| |__|  |__|  |_| \__\ |__|  \__/        
                                                                              
                      - O R C A' S   B I G   F R I E N D -                    
                                      &                                       
                       - I N T E G R A L  F E E D E R -                       
                                                                              
 v1 FN, 2020, v2 2021                                                         
------------------------------------------------------------------------------


Reading SHARK input file reaction-0-ieip_optts_Compound_1.SHARKINP.tmp ... ok
----------------------
SHARK INTEGRAL PACKAGE
----------------------

Number of atoms                             ...     21
Number of basis functions                   ...    227
Number of shells                            ...    111
Maximum angular momentum                    ...      3
Integral batch strategy                     ... SHARK/LIBINT Hybrid
RI-J (if used) integral strategy            ... SPLIT-RIJ (Revised 2003 algorithm where possible)
Printlevel                                  ...      1
Contraction scheme used                     ... SEGMENTED contraction
Coulomb Range Separation                    ... NOT USED
Exchange Range Separation                   ... NOT USED
Finite Nucleus Model                        ... NOT USED
Auxiliary Coulomb fitting basis             ... AVAILABLE
   # of basis functions in Aux-J            ...    765
   # of shells in Aux-J                     ...    243
   Maximum angular momentum in Aux-J        ...      4
Auxiliary J/K fitting basis                 ... NOT available
Auxiliary Correlation fitting basis         ... NOT available
Auxiliary 'external' fitting basis          ... NOT available
Integral threshold                          ...     2.500000e-11
Primitive cut-off                           ...     2.500000e-12
Primitive pair pre-selection threshold      ...     2.500000e-12

Calculating pre-screening integrals         ... done (  0.0 sec) Dimension = 111
Organizing shell pair data                  ... done (  0.0 sec)
Shell pair information
Total number of shell pairs                 ...      6216
Shell pairs after pre-screening             ...      5002
Total number of primitive shell pairs       ...     21723
Primitive shell pairs kept                  ...     11894
          la=0 lb=0:   1740 shell pairs
          la=1 lb=0:   1626 shell pairs
          la=1 lb=1:    365 shell pairs
          la=2 lb=0:    738 shell pairs
          la=2 lb=1:    345 shell pairs
          la=2 lb=2:     90 shell pairs
          la=3 lb=0:     56 shell pairs
          la=3 lb=1:     27 shell pairs
          la=3 lb=2:     14 shell pairs
          la=3 lb=3:      1 shell pairs

Calculating one electron integrals          ... done (  0.0 sec)
Calculating ECP integrals                   ... done (  0.2 sec)
Calculating RI/J V-Matrix + Cholesky decomp.... done (  0.0 sec)
Calculating Nuclear repulsion               ... done (  0.0 sec) ENN=    944.211394253797 Eh

SHARK setup successfully completed in   0.5 seconds

Maximum memory used throughout the entire GTOINT-calculation: 17.7 MB


           ************************************************************
           *        Program running with 8 parallel MPI-processes     *
           *              working on a common directory               *
           ************************************************************
-------------------------------------------------------------------------------
                                 ORCA SCF
-------------------------------------------------------------------------------

------------
SCF SETTINGS
------------
Hamiltonian:
 Density Functional     Method          .... DFT(GTOs)
 Exchange Functional    Exchange        .... PBE
   PBE kappa parameter   XKappa         ....  1.024500
   PBE mue parameter    XMuePBE         ....  0.123457
 Correlation Functional Correlation     .... PBE
   PBE beta parameter  CBetaPBE         ....  0.030000
 LDA part of GGA corr.  LDAOpt          .... PW91-LDA
 Gradients option       PostSCFGGA      .... off
 Hybrid DFT is turned on
   Fraction HF Exchange ScalHFX         ....  0.420000
   Scaling of DF-GGA-X  ScalDFX         ....  0.580000
   Scaling of DF-GGA-C  ScalDFC         ....  1.000000
   Scaling of DF-LDA-C  ScalLDAC        ....  1.000000
   Perturbative correction              ....  0.000000
   Density functional embedding theory  .... OFF
 RI-approximation to the Coulomb term is turned on
   Number of AuxJ basis functions       .... 765
   RIJ-ON(X) (HFX calculated with O(N)) .... on
   Number of AuxJ basis functions       .... 765
   RIJ-COSX (HFX calculated with COS-X)).... on


General Settings:
 Integral files         IntName         .... reaction-0-ieip_optts_Compound_1
 Hartree-Fock type      HFTyp           .... RHF
 Total Charge           Charge          ....    0
 Multiplicity           Mult            ....    1
 Number of Electrons    NEL             ....  106
 Basis Dimension        Dim             ....  227
 Nuclear Repulsion      ENuc            ....    944.2113942538 Eh

Convergence Acceleration:
 DIIS                   CNVDIIS         .... on
   Start iteration      DIISMaxIt       ....    12
   Startup error        DIISStart       ....  0.200000
   # of expansion vecs  DIISMaxEq       ....     5
   Bias factor          DIISBfac        ....   1.050
   Max. coefficient     DIISMaxC        ....  10.000
 Trust-Rad. Augm. Hess. CNVTRAH         .... auto
   Auto Start mean grad. ratio tolernc. ....  1.125000
   Auto Start start iteration           ....    20
   Auto Start num. interpolation iter.  ....    10
   Max. Number of Micro iterations      ....    16
   Max. Number of Macro iterations      .... Maxiter - #DIIS iter
   Number of Davidson start vectors     ....     2
   Converg. threshold I  (grad. norm)   ....   1.000e-05
   Converg. threshold II (energy diff.) ....   1.000e-08
   Grad. Scal. Fac. for Micro threshold ....   0.100
   Minimum threshold for Micro iter.    ....   0.010
   NR start threshold (gradient norm)   ....   0.001
   Initial trust radius                 ....   0.400
   Minimum AH scaling param. (alpha)    ....   1.000
   Maximum AH scaling param. (alpha)    .... 1000.000
   Orbital update algorithm             .... Taylor
   White noise on init. David. guess    .... on
   Maximum white noise                  ....   0.010
   Quad. conv. algorithm                .... NR
   COSX micro iterations for RIJONX calc.... off
 SOSCF                  CNVSOSCF        .... off
 Level Shifting         CNVShift        .... on
   Level shift para.    LevelShift      ....    0.2500
   Turn off err/grad.   ShiftErr        ....    0.0010
 Zerner damping         CNVZerner       .... off
 Static damping         CNVDamp         .... on
   Fraction old density DampFac         ....    0.7000
   Max. Damping (<1)    DampMax         ....    0.9800
   Min. Damping (>=0)   DampMin         ....    0.0000
   Turn off err/grad.   DampErr         ....    0.1000
 Fernandez-Rico         CNVRico         .... off

SCF Procedure:
 Maximum # iterations   MaxIter         ....   125
 SCF integral mode      SCFMode         .... Direct
   Integral package                     .... SHARK and LIBINT hybrid scheme
 Reset frequency        DirectResetFreq ....    20
 Integral Threshold     Thresh          ....  2.500e-11 Eh
 Primitive CutOff       TCut            ....  2.500e-12 Eh

Convergence Tolerance:
 Convergence Check Mode ConvCheckMode   .... Total+1el-Energy
 Convergence forced     ConvForced      .... 0
 Energy Change          TolE            ....  1.000e-08 Eh
 1-El. energy change                    ....  1.000e-05 Eh
 DIIS Error             TolErr          ....  5.000e-07


Diagonalization of the overlap matrix:
Smallest eigenvalue                        ... 5.028e-04
Time for diagonalization                   ...    0.009 sec
Threshold for overlap eigenvalues          ... 1.000e-08
Number of eigenvalues below threshold      ... 0
Time for construction of square roots      ...    0.005 sec
Total time needed                          ...    0.015 sec

--------------------------------
INITIAL GUESS: MINIMAL BASIS EHT
--------------------------------
The minimal basis has 81 functions
EHT matrix was diagonalized
Basis set overlap was calculated now projecting the orbitals
Using GuessMode=FMatrix for the initial guess
C*T matrix was formed
Effective Fockian was calculated
Effective Fockian was diagonalized
Initial density was built
                      ------------------
                      INITIAL GUESS DONE
                      ------------------
-------------------
DFT GRID GENERATION
-------------------

General Integration Accuracy     IntAcc      ... 4.159
Radial Grid Type                 RadialGrid  ... OptM3 with GC (2021)
Angular Grid (max. ang.)         AngularGrid ... 3 (Lebedev-194)
Angular grid pruning method      GridPruning ... 4 (adaptive)
Weight generation scheme         WeightScheme... Becke
Basis function cutoff            BFCut       ... 1.0000e-11
Integration weight cutoff        WCut        ... 1.0000e-14
Angular grids for H and He will be reduced by one unit
Partially contracted basis set               ... off
Rotationally invariant grid construction     ... off

Total number of grid points                  ...    56147
Total number of batches                      ...      889
Average number of points per batch           ...       63
Average number of grid points per atom       ...     2674
Time for grid setup =    0.197 sec

--------------------
COSX GRID GENERATION
--------------------

GRIDX 1
-------
General Integration Accuracy     IntAcc      ... 3.816
Radial Grid Type                 RadialGrid  ... OptM3 with GC (2021)
Angular Grid (max. ang.)         AngularGrid ... 1 (Lebedev-50)
Angular grid pruning method      GridPruning ... 4 (adaptive)
Weight generation scheme         WeightScheme... Becke
Basis function cutoff            BFCut       ... 1.0000e-11
Integration weight cutoff        WCut        ... 1.0000e-14
Angular grids for H and He will be reduced by one unit
Partially contracted basis set               ... on
Rotationally invariant grid construction     ... off

Total number of grid points                  ...    13545
Total number of batches                      ...      221
Average number of points per batch           ...       61
Average number of grid points per atom       ...      645
UseSFitting                                  ... on

GRIDX 2
-------
General Integration Accuracy     IntAcc      ... 4.020
Radial Grid Type                 RadialGrid  ... OptM3 with GC (2021)
Angular Grid (max. ang.)         AngularGrid ... 2 (Lebedev-110)
Angular grid pruning method      GridPruning ... 4 (adaptive)
Weight generation scheme         WeightScheme... Becke
Basis function cutoff            BFCut       ... 1.0000e-11
Integration weight cutoff        WCut        ... 1.0000e-14
Angular grids for H and He will be reduced by one unit
Partially contracted basis set               ... on
Rotationally invariant grid construction     ... off

Total number of grid points                  ...    30228
Total number of batches                      ...      483
Average number of points per batch           ...       62
Average number of grid points per atom       ...     1439
UseSFitting                                  ... on

GRIDX 3
-------
General Integration Accuracy     IntAcc      ... 4.338
Radial Grid Type                 RadialGrid  ... OptM3 with GC (2021)
Angular Grid (max. ang.)         AngularGrid ... 3 (Lebedev-194)
Angular grid pruning method      GridPruning ... 4 (adaptive)
Weight generation scheme         WeightScheme... Becke
Basis function cutoff            BFCut       ... 1.0000e-11
Integration weight cutoff        WCut        ... 1.0000e-14
Angular grids for H and He will be reduced by one unit
Partially contracted basis set               ... on
Rotationally invariant grid construction     ... off

Total number of grid points                  ...    65730
Total number of batches                      ...     1036
Average number of points per batch           ...       63
Average number of grid points per atom       ...     3130
UseSFitting                                  ... on

Time for X-Grid setup             =    0.459 sec

--------------
SCF ITERATIONS
--------------
ITER       Energy         Delta-E        Max-DP      RMS-DP      [F,P]     Damp
               ***  Starting incremental Fock matrix formation  ***
  0   -719.7399781870   0.000000000000 4.53631491  0.04404659  5.0670226 0.7000
  1   -714.3537786040   5.386199582992 4.07403968  0.05150448  3.9101902 0.7000
  2   -717.4005891585  -3.046810554507 1.71273148  0.02338906  2.6041339 0.7000
  3   -721.3729604060  -3.972371247541 0.73025475  0.01574756  1.9182984 0.7000
  4   -725.4034754769  -4.030515070889 0.70678355  0.01130910  1.2778543 0.7000
  5   -728.9206093932  -3.517133916298 0.51198460  0.00818275  0.9644575 0.7000
  6   -731.2784297015  -2.357820308325 0.35916847  0.00595218  0.7120804 0.7000
  7   -732.9821984678  -1.703768766312 0.25118741  0.00428804  0.5050337 0.7000
  8   -734.2098633237  -1.227664855827 0.17755958  0.00301825  0.3485317 0.7000
  9   -735.0798167463  -0.869953422657 0.12679675  0.00210460  0.2396486 0.7000
                               ***Turning on DIIS***
 10   -735.6943658020  -0.614549055676 0.09096285  0.00147557  0.1663829 0.7000
 11   -736.1278337062  -0.433467904257 0.06670715  0.00105371  0.1167077 0.7000
 12   -736.4330224185  -0.305188712250 0.16033854  0.00252089  0.0822806 0.0000
 13   -737.1513836558  -0.718361237279 0.00636442  0.00011100  0.0022724 0.0000
 14   -737.1516191140  -0.000235458223 0.00667211  0.00007446  0.0013460 0.0000
 15   -737.1517069968  -0.000087882752 0.00329498  0.00004880  0.0010638 0.0000
 16   -737.1517417245  -0.000034727745 0.00593935  0.00005520  0.0008347 0.0000
               *** Restarting incremental Fock matrix formation ***
                                   *** Resetting DIIS ***
 17   -737.1518684555  -0.000126730974 0.00254271  0.00005216  0.0004763 0.0000
 18   -737.1518718694  -0.000003413948 0.00138637  0.00001367  0.0005233 0.0000
 19   -737.1518737799  -0.000001910478 0.00121381  0.00000989  0.0002781 0.0000
 20   -737.1518745283  -0.000000748357 0.00065124  0.00000514  0.0001778 0.0000
 21   -737.1518747970  -0.000000268747 0.00074341  0.00000636  0.0001259 0.0000
 22   -737.1518749714  -0.000000174438 0.00033893  0.00000304  0.0000599 0.0000
 23   -737.1518750062  -0.000000034722 0.00025295  0.00000208  0.0000277 0.0000
 24   -737.1518750132  -0.000000007035 0.00004913  0.00000044  0.0000061 0.0000
 25   -737.1518750094   0.000000003820 0.00001803  0.00000015  0.0000030 0.0000
 26   -737.1518750055   0.000000003861 0.00000365  0.00000006  0.0000029 0.0000
 27   -737.1518750094  -0.000000003855 0.00000415  0.00000004  0.0000011 0.0000
                 **** Energy Check signals convergence ****

               *****************************************************
               *                     SUCCESS                       *
               *           SCF CONVERGED AFTER  28 CYCLES          *
               *****************************************************

Old exchange energy                            =    -37.377917819 Eh
New exchange energy                            =    -37.377973755 Eh
Exchange energy change after final integration =     -0.000055936 Eh
Total energy after final integration           =   -737.151930938 Eh
Final COS-X integration done in                =     2.342 sec

----------------
TOTAL SCF ENERGY
----------------

Total Energy       :         -737.15193094 Eh          -20058.92382 eV

Components:
Nuclear Repulsion  :          944.21139425 Eh           25693.29826 eV
Electronic Energy  :        -1681.36332519 Eh          -45752.22208 eV
One Electron Energy:        -2935.24390219 Eh          -79872.04719 eV
Two Electron Energy:         1253.88057700 Eh           34119.82512 eV
Max COSX asymmetry :            0.00002719 Eh               0.00074 eV

Virial components:
Potential Energy   :        -1390.04507701 Eh          -37825.04953 eV
Kinetic Energy     :          652.89314607 Eh           17766.12572 eV
Virial Ratio       :            2.12905448


DFT components:
N(Alpha)           :       52.999990784713 electrons
N(Beta)            :       52.999990784713 electrons
N(Total)           :      105.999981569425 electrons
E(X)               :      -49.963241111624 Eh       
E(C)               :       -4.859392095331 Eh       
E(XC)              :      -54.822633206954 Eh       
DFET-embed. en.    :        0.000000000000 Eh       

---------------
SCF CONVERGENCE
---------------

  Last Energy change         ...    6.5513e-09  Tolerance :   1.0000e-08
  Last MAX-Density change    ...    0.0000e+00  Tolerance :   1.0000e-07
  Last RMS-Density change    ...    0.0000e+00  Tolerance :   5.0000e-09
  Last DIIS Error            ...    3.7202e-07  Tolerance :   5.0000e-07

             **** THE GBW FILE WAS UPDATED (reaction-0-ieip_optts_Compound_1.gbw) ****
             **** DENSITY reaction-0-ieip_optts_Compound_1.scfp WAS UPDATED ****
             **** ENERGY FILE WAS UPDATED (reaction-0-ieip_optts_Compound_1.en.tmp) ****
             **** THE GBW FILE WAS UPDATED (reaction-0-ieip_optts_Compound_1.gbw) ****
             **** DENSITY reaction-0-ieip_optts_Compound_1.scfp WAS UPDATED ****
----------------
ORBITAL ENERGIES
----------------

  NO   OCC          E(Eh)            E(eV) 
   0   2.0000     -19.531740      -531.4857 
   1   2.0000     -19.523631      -531.2650 
   2   2.0000     -19.515409      -531.0413 
   3   2.0000     -19.508291      -530.8476 
   4   2.0000     -10.585548      -288.0474 
   5   2.0000     -10.582671      -287.9691 
   6   2.0000     -10.475540      -285.0539 
   7   2.0000     -10.475051      -285.0406 
   8   2.0000     -10.470662      -284.9212 
   9   2.0000     -10.463140      -284.7165 
  10   2.0000     -10.461474      -284.6712 
  11   2.0000     -10.458984      -284.6034 
  12   2.0000      -3.679741      -100.1309 
  13   2.0000      -2.330840       -63.4254 
  14   2.0000      -2.321066       -63.1594 
  15   2.0000      -2.290639       -62.3315 
  16   2.0000      -1.223680       -33.2980 
  17   2.0000      -1.218473       -33.1563 
  18   2.0000      -1.124317       -30.5942 
  19   2.0000      -1.108825       -30.1727 
  20   2.0000      -0.971394       -26.4330 
  21   2.0000      -0.854673       -23.2568 
  22   2.0000      -0.851527       -23.1712 
  23   2.0000      -0.711670       -19.3655 
  24   2.0000      -0.694966       -18.9110 
  25   2.0000      -0.689694       -18.7675 
  26   2.0000      -0.685704       -18.6590 
  27   2.0000      -0.610559       -16.6141 
  28   2.0000      -0.592152       -16.1133 
  29   2.0000      -0.580816       -15.8048 
  30   2.0000      -0.575781       -15.6678 
  31   2.0000      -0.550772       -14.9873 
  32   2.0000      -0.535492       -14.5715 
  33   2.0000      -0.529259       -14.4019 
  34   2.0000      -0.523233       -14.2379 
  35   2.0000      -0.520170       -14.1545 
  36   2.0000      -0.495971       -13.4961 
  37   2.0000      -0.480584       -13.0773 
  38   2.0000      -0.456382       -12.4188 
  39   2.0000      -0.439061       -11.9475 
  40   2.0000      -0.426328       -11.6010 
  41   2.0000      -0.411481       -11.1970 
  42   2.0000      -0.410240       -11.1632 
  43   2.0000      -0.397383       -10.8134 
  44   2.0000      -0.385589       -10.4924 
  45   2.0000      -0.377051       -10.2601 
  46   2.0000      -0.366110        -9.9624 
  47   2.0000      -0.354953        -9.6588 
  48   2.0000      -0.336903        -9.1676 
  49   2.0000      -0.334573        -9.1042 
  50   2.0000      -0.312452        -8.5023 
  51   2.0000      -0.305646        -8.3171 
  52   2.0000      -0.299259        -8.1433 
  53   0.0000      -0.095720        -2.6047 
  54   0.0000       0.001549         0.0421 
  55   0.0000       0.005393         0.1468 
  56   0.0000       0.027120         0.7380 
  57   0.0000       0.036879         1.0035 
  58   0.0000       0.059340         1.6147 
  59   0.0000       0.064167         1.7461 
  60   0.0000       0.092027         2.5042 
  61   0.0000       0.098756         2.6873 
  62   0.0000       0.147486         4.0133 
  63   0.0000       0.167680         4.5628 
  64   0.0000       0.183103         4.9825 
  65   0.0000       0.190306         5.1785 
  66   0.0000       0.195894         5.3306 
  67   0.0000       0.206361         5.6154 
  68   0.0000       0.227766         6.1978 
  69   0.0000       0.232608         6.3296 
  70   0.0000       0.248288         6.7563 
  71   0.0000       0.267430         7.2771 
  72   0.0000       0.298266         8.1162 
  73   0.0000       0.304863         8.2958 
  74   0.0000       0.316770         8.6198 
  75   0.0000       0.324135         8.8202 
  76   0.0000       0.330775         9.0008 
  77   0.0000       0.347835         9.4651 
  78   0.0000       0.364145         9.9089 
  79   0.0000       0.380765        10.3611 
  80   0.0000       0.423340        11.5197 
  81   0.0000       0.443026        12.0553 
  82   0.0000       0.456699        12.4274 
  83   0.0000       0.461319        12.5531 
  84   0.0000       0.477354        12.9895 
  85   0.0000       0.499555        13.5936 
  86   0.0000       0.517524        14.0825 
  87   0.0000       0.522802        14.2262 
  88   0.0000       0.551220        14.9995 
  89   0.0000       0.556130        15.1331 
  90   0.0000       0.575157        15.6508 
  91   0.0000       0.584363        15.9013 
  92   0.0000       0.590118        16.0579 
  93   0.0000       0.597946        16.2709 
  94   0.0000       0.606012        16.4904 
  95   0.0000       0.617374        16.7996 
  96   0.0000       0.624049        16.9812 
  97   0.0000       0.637453        17.3460 
  98   0.0000       0.643545        17.5117 
  99   0.0000       0.665744        18.1158 
 100   0.0000       0.675715        18.3871 
 101   0.0000       0.676762        18.4156 
 102   0.0000       0.713790        19.4232 
 103   0.0000       0.725818        19.7505 
 104   0.0000       0.746904        20.3243 
 105   0.0000       0.774484        21.0748 
 106   0.0000       0.779009        21.1979 
 107   0.0000       0.793787        21.6000 
 108   0.0000       0.831118        22.6159 
 109   0.0000       0.861698        23.4480 
 110   0.0000       0.865951        23.5637 
 111   0.0000       0.886483        24.1224 
 112   0.0000       0.929967        25.3057 
 113   0.0000       0.935091        25.4451 
 114   0.0000       0.944617        25.7043 
 115   0.0000       0.952705        25.9244 
 116   0.0000       0.957474        26.0542 
 117   0.0000       0.960632        26.1401 
 118   0.0000       0.982198        26.7270 
 119   0.0000       1.012356        27.5476 
 120   0.0000       1.034202        28.1421 
 121   0.0000       1.035630        28.1809 
 122   0.0000       1.055403        28.7190 
 123   0.0000       1.079078        29.3632 
 124   0.0000       1.083848        29.4930 
 125   0.0000       1.094869        29.7929 
 126   0.0000       1.117938        30.4206 
 127   0.0000       1.138052        30.9680 
 128   0.0000       1.148665        31.2568 
 129   0.0000       1.170378        31.8476 
 130   0.0000       1.180399        32.1203 
 131   0.0000       1.182096        32.1665 
 132   0.0000       1.227338        33.3976 
 133   0.0000       1.236754        33.6538 
 134   0.0000       1.261921        34.3386 
 135   0.0000       1.283491        34.9256 
 136   0.0000       1.311028        35.6749 
 137   0.0000       1.330482        36.2043 
 138   0.0000       1.349473        36.7210 
 139   0.0000       1.410732        38.3880 
 140   0.0000       1.418031        38.5866 
 141   0.0000       1.473031        40.0832 
 142   0.0000       1.492343        40.6087 
 143   0.0000       1.505563        40.9685 
 144   0.0000       1.519645        41.3516 
 145   0.0000       1.525860        41.5208 
 146   0.0000       1.543755        42.0077 
 147   0.0000       1.553944        42.2850 
 148   0.0000       1.562787        42.5256 
 149   0.0000       1.585343        43.1394 
 150   0.0000       1.616117        43.9768 
 151   0.0000       1.717519        46.7361 
 152   0.0000       1.750042        47.6211 
 153   0.0000       1.801945        49.0334 
 154   0.0000       1.815303        49.3969 
 155   0.0000       1.823070        49.6083 
 156   0.0000       1.828581        49.7582 
 157   0.0000       1.838919        50.0395 
 158   0.0000       1.859071        50.5879 
 159   0.0000       1.874586        51.0101 
 160   0.0000       1.901246        51.7355 
 161   0.0000       1.915467        52.1225 
 162   0.0000       1.931263        52.5523 
 163   0.0000       1.952181        53.1215 
 164   0.0000       1.971693        53.6525 
 165   0.0000       1.990422        54.1621 
 166   0.0000       2.016080        54.8603 
 167   0.0000       2.022148        55.0254 
 168   0.0000       2.039762        55.5047 
 169   0.0000       2.055218        55.9253 
 170   0.0000       2.080119        56.6029 
 171   0.0000       2.122543        57.7573 
 172   0.0000       2.144035        58.3422 
 173   0.0000       2.152700        58.5779 
 174   0.0000       2.180370        59.3309 
 175   0.0000       2.187690        59.5301 
 176   0.0000       2.198330        59.8196 
 177   0.0000       2.234979        60.8169 
 178   0.0000       2.255783        61.3830 
 179   0.0000       2.301716        62.6329 
 180   0.0000       2.322639        63.2022 
 181   0.0000       2.335531        63.5530 
 182   0.0000       2.368781        64.4578 
 183   0.0000       2.390601        65.0516 
 184   0.0000       2.417309        65.7783 
 185   0.0000       2.430077        66.1258 
 186   0.0000       2.441737        66.4430 
 187   0.0000       2.450770        66.6888 
 188   0.0000       2.470048        67.2134 
 189   0.0000       2.488129        67.7054 
 190   0.0000       2.522971        68.6535 
 191   0.0000       2.535043        68.9820 
 192   0.0000       2.572665        70.0058 
 193   0.0000       2.596493        70.6542 
 194   0.0000       2.601067        70.7786 
 195   0.0000       2.646528        72.0157 
 196   0.0000       2.685290        73.0705 
 197   0.0000       2.691139        73.2296 
 198   0.0000       2.708693        73.7073 
 199   0.0000       2.717642        73.9508 
 200   0.0000       2.743285        74.6486 
 201   0.0000       2.756145        74.9985 
 202   0.0000       2.770917        75.4005 
 203   0.0000       2.805710        76.3473 
 204   0.0000       2.823874        76.8415 
 205   0.0000       2.860990        77.8515 
 206   0.0000       2.939139        79.9780 
 207   0.0000       2.962525        80.6144 
 208   0.0000       2.979761        81.0834 
 209   0.0000       2.995509        81.5119 
 210   0.0000       3.075507        83.6888 
 211   0.0000       3.114190        84.7414 
 212   0.0000       3.136275        85.3424 
 213   0.0000       3.413118        92.8757 
 214   0.0000      13.286175       361.5352 
 215   0.0000      13.632517       370.9596 
 216   0.0000      13.762724       374.5028 
 217   0.0000      13.884676       377.8212 
 218   0.0000      13.913542       378.6067 
 219   0.0000      14.129678       384.4881 
 220   0.0000      14.177014       385.7762 
 221   0.0000      14.526266       395.2798 
 222   0.0000      25.546363       695.1519 
 223   0.0000      25.646835       697.8859 
 224   0.0000      25.667132       698.4382 
 225   0.0000      25.794538       701.9051 
 226   0.0000      51.558664      1402.9826 

                    ********************************
                    * MULLIKEN POPULATION ANALYSIS *
                    ********************************

-----------------------
MULLIKEN ATOMIC CHARGES
-----------------------
   0 C :   -0.116959
   1 C :   -0.226477
   2 C :   -0.200103
   3 C :   -0.224256
   4 C :   -0.643966
   5 C :   -0.112058
   6 H :    0.249391
   7 H :    0.230942
   8 H :    0.235763
   9 H :    0.252436
  10 H :    0.230356
  11 Pd:    0.528685
  12 O :   -0.446284
  13 O :   -0.478109
  14 O :   -0.470316
  15 C :    0.365826
  16 O :   -0.483430
  17 H :    0.486541
  18 C :    0.407978
  19 H :    0.200869
  20 H :    0.213171
Sum of atomic charges:   -0.0000000

--------------------------------
MULLIKEN REDUCED ORBITAL CHARGES
--------------------------------
  0 C s       :     3.249414  s :     3.249414
      pz      :     0.897984  p :     2.826291
      px      :     0.889213
      py      :     1.039094
      dz2     :     0.008690  d :     0.041255
      dxz     :     0.005608
      dyz     :     0.009238
      dx2y2   :     0.009386
      dxy     :     0.008332
  1 C s       :     3.245788  s :     3.245788
      pz      :     1.022002  p :     2.941509
      px      :     1.024758
      py      :     0.894750
      dz2     :     0.005921  d :     0.039180
      dxz     :     0.007101
      dyz     :     0.009339
      dx2y2   :     0.008627
      dxy     :     0.008191
  2 C s       :     3.265834  s :     3.265834
      pz      :     0.968026  p :     2.893453
      px      :     0.932977
      py      :     0.992451
      dz2     :     0.006661  d :     0.040816
      dxz     :     0.005469
      dyz     :     0.012306
      dx2y2   :     0.008221
      dxy     :     0.008159
  3 C s       :     3.247822  s :     3.247822
      pz      :     0.931725  p :     2.937217
      px      :     0.967168
      py      :     1.038324
      dz2     :     0.008358  d :     0.039217
      dxz     :     0.006078
      dyz     :     0.008463
      dx2y2   :     0.009164
      dxy     :     0.007155
  4 C s       :     3.404921  s :     3.404921
      pz      :     1.118882  p :     3.201402
      px      :     0.971380
      py      :     1.111140
      dz2     :     0.006846  d :     0.037643
      dxz     :     0.007299
      dyz     :     0.007678
      dx2y2   :     0.009418
      dxy     :     0.006402
  5 C s       :     3.249650  s :     3.249650
      pz      :     0.955574  p :     2.821055
      px      :     0.979841
      py      :     0.885640
      dz2     :     0.005727  d :     0.041354
      dxz     :     0.007369
      dyz     :     0.010581
      dx2y2   :     0.008575
      dxy     :     0.009103
  6 H s       :     0.750609  s :     0.750609
  7 H s       :     0.769058  s :     0.769058
  8 H s       :     0.764237  s :     0.764237
  9 H s       :     0.747564  s :     0.747564
 10 H s       :     0.769644  s :     0.769644
 11 Pds       :     2.477180  s :     2.477180
      pz      :     2.057436  p :     6.288436
      px      :     2.111077
      py      :     2.119923
      dz2     :     1.883441  d :     8.701100
      dxz     :     1.902160
      dyz     :     1.926380
      dx2y2   :     1.649243
      dxy     :     1.339875
      f0      :     0.000378  f :     0.004599
      f+1     :     0.000411
      f-1     :     0.000498
      f+2     :     0.000509
      f-2     :     0.000512
      f+3     :     0.001510
      f-3     :     0.000781
 12 O s       :     3.811687  s :     3.811687
      pz      :     1.616707  p :     4.604766
      px      :     1.620130
      py      :     1.367930
      dz2     :     0.003603  d :     0.029831
      dxz     :     0.001709
      dyz     :     0.008582
      dx2y2   :     0.009094
      dxy     :     0.006842
 13 O s       :     3.817599  s :     3.817599
      pz      :     1.542261  p :     4.629701
      px      :     1.454041
      py      :     1.633399
      dz2     :     0.006098  d :     0.030809
      dxz     :     0.004798
      dyz     :     0.006372
      dx2y2   :     0.005268
      dxy     :     0.008272
 14 O s       :     3.801386  s :     3.801386
      pz      :     1.427249  p :     4.639876
      px      :     1.557101
      py      :     1.655526
      dz2     :     0.010084  d :     0.029054
      dxz     :     0.007970
      dyz     :     0.005620
      dx2y2   :     0.003155
      dxy     :     0.002225
 15 C s       :     3.048598  s :     3.048598
      pz      :     0.787203  p :     2.447566
      px      :     0.734626
      py      :     0.925737
      dz2     :     0.042216  d :     0.138010
      dxz     :     0.028627
      dyz     :     0.037768
      dx2y2   :     0.015329
      dxy     :     0.014068
 16 O s       :     3.793237  s :     3.793237
      pz      :     1.571956  p :     4.662589
      px      :     1.618694
      py      :     1.471939
      dz2     :     0.007065  d :     0.027604
      dxz     :     0.005876
      dyz     :     0.009203
      dx2y2   :     0.002514
      dxy     :     0.002945
 17 H s       :     0.513459  s :     0.513459
 18 C s       :     3.052643  s :     3.052643
      pz      :     0.754728  p :     2.402031
      px      :     0.836139
      py      :     0.811164
      dz2     :     0.016754  d :     0.137348
      dxz     :     0.013042
      dyz     :     0.032603
      dx2y2   :     0.033746
      dxy     :     0.041204
 19 H s       :     0.799131  s :     0.799131
 20 H s       :     0.786829  s :     0.786829


                     *******************************
                     * LOEWDIN POPULATION ANALYSIS *
                     *******************************

----------------------
LOEWDIN ATOMIC CHARGES
----------------------
   0 C :   -0.055382
   1 C :   -0.141479
   2 C :   -0.083338
   3 C :   -0.136211
   4 C :   -0.199758
   5 C :   -0.049479
   6 H :    0.156778
   7 H :    0.142681
   8 H :    0.143164
   9 H :    0.156927
  10 H :    0.142975
  11 Pd:   -0.214269
  12 O :   -0.161181
  13 O :   -0.153583
  14 O :   -0.133932
  15 C :    0.134421
  16 O :   -0.282239
  17 H :    0.333011
  18 C :    0.158978
  19 H :    0.119004
  20 H :    0.122910

-------------------------------
LOEWDIN REDUCED ORBITAL CHARGES
-------------------------------
  0 C s       :     2.889276  s :     2.889276
      pz      :     1.017601  p :     3.072950
      px      :     0.968562
      py      :     1.086787
      dz2     :     0.019079  d :     0.093155
      dxz     :     0.014382
      dyz     :     0.021892
      dx2y2   :     0.019601
      dxy     :     0.018201
  1 C s       :     2.887919  s :     2.887919
      pz      :     1.047745  p :     3.163560
      px      :     1.029657
      py      :     1.086158
      dz2     :     0.013094  d :     0.090000
      dxz     :     0.012245
      dyz     :     0.023098
      dx2y2   :     0.022039
      dxy     :     0.019524
  2 C s       :     2.896359  s :     2.896359
      pz      :     1.026561  p :     3.095453
      px      :     0.980622
      py      :     1.088270
      dz2     :     0.014969  d :     0.091526
      dxz     :     0.012039
      dyz     :     0.027180
      dx2y2   :     0.018666
      dxy     :     0.018672
  3 C s       :     2.887972  s :     2.887972
      pz      :     1.049308  p :     3.158275
      px      :     1.026273
      py      :     1.082693
      dz2     :     0.018744  d :     0.089965
      dxz     :     0.015319
      dyz     :     0.020770
      dx2y2   :     0.019271
      dxy     :     0.015861
  4 C s       :     2.905127  s :     2.905127
      pz      :     1.087395  p :     3.208582
      px      :     1.013075
      py      :     1.108112
      dz2     :     0.014173  d :     0.086048
      dxz     :     0.016948
      dyz     :     0.018133
      dx2y2   :     0.021678
      dxy     :     0.015116
  5 C s       :     2.888661  s :     2.888661
      pz      :     1.006148  p :     3.066979
      px      :     0.967534
      py      :     1.093297
      dz2     :     0.012708  d :     0.093839
      dxz     :     0.012331
      dyz     :     0.025748
      dx2y2   :     0.022489
      dxy     :     0.020564
  6 H s       :     0.843222  s :     0.843222
  7 H s       :     0.857319  s :     0.857319
  8 H s       :     0.856836  s :     0.856836
  9 H s       :     0.843073  s :     0.843073
 10 H s       :     0.857025  s :     0.857025
 11 Pds       :     2.473489  s :     2.473489
      pz      :     2.115601  p :     6.638020
      px      :     2.264961
      py      :     2.257459
      dz2     :     1.941732  d :     9.096492
      dxz     :     1.972801
      dyz     :     1.959046
      dx2y2   :     1.749951
      dxy     :     1.472962
      f0      :     0.000499  f :     0.006269
      f+1     :     0.000526
      f-1     :     0.000716
      f+2     :     0.000713
      f-2     :     0.000666
      f+3     :     0.002158
      f-3     :     0.000990
 12 O s       :     3.480056  s :     3.480056
      pz      :     1.581756  p :     4.623982
      px      :     1.588632
      py      :     1.453594
      dz2     :     0.007405  d :     0.057143
      dxz     :     0.002966
      dyz     :     0.013034
      dx2y2   :     0.020430
      dxy     :     0.013309
 13 O s       :     3.464214  s :     3.464214
      pz      :     1.536105  p :     4.629765
      px      :     1.472330
      py      :     1.621330
      dz2     :     0.008545  d :     0.059604
      dxz     :     0.012428
      dyz     :     0.011274
      dx2y2   :     0.011246
      dxy     :     0.016110
 14 O s       :     3.443701  s :     3.443701
      pz      :     1.481736  p :     4.629330
      px      :     1.526611
      py      :     1.620983
      dz2     :     0.020519  d :     0.060902
      dxz     :     0.015234
      dyz     :     0.013403
      dx2y2   :     0.006165
      dxy     :     0.005580
 15 C s       :     2.850800  s :     2.850800
      pz      :     0.934558  p :     2.706875
      px      :     0.764609
      py      :     1.007708
      dz2     :     0.099882  d :     0.307904
      dxz     :     0.063992
      dyz     :     0.085068
      dx2y2   :     0.031381
      dxy     :     0.027582
 16 O s       :     3.511960  s :     3.511960
      pz      :     1.599328  p :     4.714513
      px      :     1.591687
      py      :     1.523498
      dz2     :     0.012783  d :     0.055766
      dxz     :     0.007881
      dyz     :     0.021891
      dx2y2   :     0.008298
      dxy     :     0.004913
 17 H s       :     0.666989  s :     0.666989
 18 C s       :     2.853119  s :     2.853119
      pz      :     0.800374  p :     2.686727
      px      :     0.927262
      py      :     0.959091
      dz2     :     0.035388  d :     0.301177
      dxz     :     0.027363
      dyz     :     0.072297
      dx2y2   :     0.076221
      dxy     :     0.089908
 19 H s       :     0.880996  s :     0.880996
 20 H s       :     0.877090  s :     0.877090


                      *****************************
                      * MAYER POPULATION ANALYSIS *
                      *****************************

  NA   - Mulliken gross atomic population
  ZA   - Total nuclear charge
  QA   - Mulliken gross atomic charge
  VA   - Mayer's total valence
  BVA  - Mayer's bonded valence
  FA   - Mayer's free valence

  ATOM       NA         ZA         QA         VA         BVA        FA
  0 C      6.1170     6.0000    -0.1170     3.7225     3.7225    -0.0000
  1 C      6.2265     6.0000    -0.2265     3.8131     3.8131    -0.0000
  2 C      6.2001     6.0000    -0.2001     3.7939     3.7939    -0.0000
  3 C      6.2243     6.0000    -0.2243     3.8115     3.8115    -0.0000
  4 C      6.6440     6.0000    -0.6440     3.5476     3.5476    -0.0000
  5 C      6.1121     6.0000    -0.1121     3.7611     3.7611    -0.0000
  6 H      0.7506     1.0000     0.2494     0.9077     0.9077    -0.0000
  7 H      0.7691     1.0000     0.2309     0.9079     0.9079    -0.0000
  8 H      0.7642     1.0000     0.2358     0.9054     0.9054    -0.0000
  9 H      0.7476     1.0000     0.2524     0.9009     0.9009    -0.0000
 10 H      0.7696     1.0000     0.2304     0.9079     0.9079     0.0000
 11 Pd    17.4713    18.0000     0.5287     2.3575     2.3575    -0.0000
 12 O      8.4463     8.0000    -0.4463     2.1943     2.1943    -0.0000
 13 O      8.4781     8.0000    -0.4781     2.1712     2.1712    -0.0000
 14 O      8.4703     8.0000    -0.4703     2.1759     2.1759    -0.0000
 15 C      5.6342     6.0000     0.3658     3.9676     3.9676     0.0000
 16 O      8.4834     8.0000    -0.4834     2.0957     2.0957    -0.0000
 17 H      0.5135     1.0000     0.4865     0.7397     0.7397    -0.0000
 18 C      5.5920     6.0000     0.4080     3.8850     3.8850    -0.0000
 19 H      0.7991     1.0000     0.2009     0.9116     0.9116    -0.0000
 20 H      0.7868     1.0000     0.2132     0.9054     0.9054     0.0000

  Mayer bond orders larger than 0.100000
B(  0-C ,  1-C ) :   1.4459 B(  0-C ,  4-C ) :   1.2519 B(  0-C ,  6-H ) :   0.9030 
B(  1-C ,  2-C ) :   1.4074 B(  1-C ,  7-H ) :   0.9154 B(  2-C ,  3-C ) :   1.3943 
B(  2-C ,  8-H ) :   0.9147 B(  3-C ,  5-C ) :   1.4598 B(  3-C , 10-H ) :   0.9153 
B(  4-C ,  5-C ) :   1.2864 B(  4-C , 11-Pd) :   0.4921 B(  4-C , 17-H ) :   0.4169 
B(  5-C ,  9-H ) :   0.9066 B( 11-Pd, 12-O ) :   0.4621 B( 11-Pd, 13-O ) :   0.5649 
B( 11-Pd, 14-O ) :   0.5477 B( 12-O , 13-O ) :   0.1148 B( 12-O , 18-C ) :   1.5501 
B( 13-O , 18-C ) :   1.4195 B( 14-O , 15-C ) :   1.4548 B( 14-O , 16-O ) :   0.1066 
B( 15-C , 16-O ) :   1.5990 B( 15-C , 20-H ) :   0.8783 B( 16-O , 17-H ) :   0.2833 
B( 18-C , 19-H ) :   0.8856 

-------
TIMINGS
-------

Total SCF time: 0 days 0 hours 0 min 30 sec 

Total time                  ....      30.127 sec
Sum of individual times     ....      29.809 sec  ( 98.9%)

Fock matrix formation       ....      28.530 sec  ( 94.7%)
  Split-RI-J                ....       3.829 sec  ( 13.4% of F)
  Chain of spheres X        ....      21.527 sec  ( 75.5% of F)
  XC integration            ....       3.016 sec  ( 10.6% of F)
    Basis function eval.    ....       1.137 sec  ( 37.7% of XC)
    Density eval.           ....       0.691 sec  ( 22.9% of XC)
    XC-Functional eval.     ....       0.256 sec  (  8.5% of XC)
    XC-Potential eval.      ....       0.651 sec  ( 21.6% of XC)
Diagonalization             ....       0.344 sec  (  1.1%)
Density matrix formation    ....       0.017 sec  (  0.1%)
Population analysis         ....       0.014 sec  (  0.0%)
Initial guess               ....       0.026 sec  (  0.1%)
[...]
 ** NOTE ** -> element pd will be treated as ni
   59      -737.142198   -13.487683    0.001665  0.000506
 ** NOTE ** -> element pd will be treated as ni
 ** NOTE ** -> element pd will be treated as ni
 ** NOTE ** -> element pd will be treated as ni
 ** NOTE ** -> element pd will be treated as ni
   60      -737.142280   -13.538843    0.001630  0.000502
 ** NOTE ** -> element pd will be treated as ni
 ** NOTE ** -> element pd will be treated as ni
 ** NOTE ** -> element pd will be treated as ni
 ** NOTE ** -> element pd will be treated as ni
   61      -737.142360   -13.589559    0.001637  0.000497

                      ***********************HURRAY********************
                      ***            THE IRC HAS CONVERGED          ***
                      *************************************************


---------------------------------------------------------------
                       IRC PATH SUMMARY              
---------------------------------------------------------------
All gradients are in Eh/Bohr.

Step        E(Eh)      dE(kcal/mol)  max(|G|)   RMS(G) 
   1      -737.142360   -13.589559    0.001637  0.000497
   2      -737.142280   -13.538843    0.001630  0.000502
   3      -737.142198   -13.487683    0.001665  0.000506
   4      -737.142116   -13.435975    0.001672  0.000511
   5      -737.142033   -13.383933    0.001693  0.000516
   6      -737.141949   -13.331526    0.001706  0.000523
   7      -737.141865   -13.278678    0.001718  0.000528
   8      -737.141780   -13.225283    0.001722  0.000533
   9      -737.141694   -13.171624    0.001734  0.000541
  10      -737.141608   -13.117119    0.001777  0.000544
  11      -737.141520   -13.062164    0.001784  0.000550
  12      -737.141432   -13.006784    0.001804  0.000558
  13      -737.141342   -12.950767    0.001827  0.000564
  14      -737.141252   -12.894121    0.001839  0.000569
  15      -737.141161   -12.837171    0.001809  0.000579
  16      -737.141069   -12.779332    0.001884  0.000583
  17      -737.140976   -12.720988    0.001854  0.000592
  18      -737.140882   -12.661891    0.001925  0.000598
  19      -737.140787   -12.602210    0.001891  0.000607
  20      -737.140691   -12.541765    0.001960  0.000614
  21      -737.140593   -12.480760    0.001921  0.000624
  22      -737.140495   -12.418864    0.001978  0.000631
  23      -737.140395   -12.356380    0.001965  0.000641
  24      -737.140294   -12.292965    0.002000  0.000648
  25      -737.140192   -12.228925    0.001984  0.000659
  26      -737.140088   -12.163755    0.002025  0.000667
  27      -737.139984   -12.098058    0.002021  0.000678
  28      -737.139877   -12.031139    0.002045  0.000687
  29      -737.139769   -11.963662    0.002049  0.000699
  30      -737.139660   -11.895103    0.002066  0.000709
  31      -737.139549   -11.825609    0.002071  0.000719
  32      -737.139438   -11.755533    0.002070  0.000734
  33      -737.139323   -11.683881    0.002092  0.000742
  34      -737.139208   -11.611598    0.002088  0.000756
  35      -737.139091   -11.537815    0.002104  0.000766
  36      -737.138972   -11.463404    0.002101  0.000781
  37      -737.138851   -11.387612    0.002115  0.000793
  38      -737.138729   -11.310634    0.002111  0.000805
  39      -737.138604   -11.232184    0.002116  0.000818
  40      -737.138478   -11.153140    0.002113  0.000836
  41      -737.138349   -11.072241    0.002115  0.000847
  42      -737.138218   -10.990456    0.002111  0.000863
  43      -737.138086   -10.907286    0.002110  0.000880
  44      -737.137951   -10.822573    0.002104  0.000892
  45      -737.137813   -10.736188    0.002099  0.000908
  46      -737.137675   -10.649137    0.002090  0.000930
  47      -737.137532   -10.559982    0.002082  0.000942
  48      -737.137388   -10.469174    0.002118  0.000959
  49      -737.137246   -10.380323    0.002497  0.001022
  50      -737.137125   -10.304225    0.003633  0.001195
  51      -737.136961   -10.201523    0.004356  0.001286
  52      -737.136380   -9.837124    0.003043  0.001142
  53      -737.135721   -9.423444    0.002498  0.001195
  54      -737.135007   -8.975415    0.003772  0.001288
  55      -737.134224   -8.483702    0.003701  0.001381
  56      -737.133379   -7.953844    0.004644  0.001523
  57      -737.132448   -7.369373    0.005287  0.001682
  58      -737.131416   -6.721728    0.006450  0.001926
  59      -737.130379   -6.071030    0.007082  0.002554
  60      -737.129489   -5.512496    0.009025  0.002832
  61      -737.126613   -3.707637    0.012785  0.003378
  62      -737.123156   -1.538665    0.011075  0.003393
  63      -737.120704    0.000000    0.000111  0.000058 <= TS
  64      -737.121335   -0.395901    0.011481  0.002758
  65      -737.121775   -0.671923    0.009585  0.001972
  66      -737.121998   -0.812019    0.007454  0.001491
  67      -737.122321   -1.014501    0.004479  0.001190
  68      -737.122652   -1.222332    0.003826  0.001134
  69      -737.122969   -1.421283    0.003661  0.001083
  70      -737.123276   -1.613727    0.003344  0.001041
  71      -737.123571   -1.799074    0.003332  0.001001
  72      -737.123855   -1.977542    0.003032  0.000961
  73      -737.124132   -2.150800    0.002986  0.000932
  74      -737.124398   -2.317848    0.002787  0.000897
  75      -737.124658   -2.481137    0.002598  0.000874
  76      -737.124911   -2.639859    0.002442  0.000848
  77      -737.125159   -2.795538    0.002373  0.000830
  78      -737.125401   -2.947610    0.002232  0.000809
  79      -737.125640   -3.097428    0.002186  0.000796
  80      -737.125874   -3.244266    0.002110  0.000781
  81      -737.126105   -3.389059    0.002040  0.000770
  82      -737.126332   -3.531329    0.002051  0.000757
  83      -737.126556   -3.671921    0.001909  0.000747
  84      -737.126777   -3.810658    0.001823  0.000739
  85      -737.126995   -3.947426    0.001985  0.000734
  86      -737.127209   -4.081813    0.001802  0.000732
  87      -737.127418   -4.213191    0.002218  0.000745
  88      -737.127619   -4.338965    0.001909  0.000764
  89      -737.127809   -4.458261    0.002671  0.000831
  90      -737.127980   -4.565607    0.002402  0.000873
  91      -737.128139   -4.665662    0.003078  0.000960
  92      -737.128203   -4.705897    0.002612  0.000772
  93      -737.128297   -4.764660    0.001474  0.000686
  94      -737.128399   -4.828401    0.001481  0.000681
  95      -737.128500   -4.892000    0.001432  0.000679
  96      -737.128601   -4.955255    0.001419  0.000676
  97      -737.128701   -5.018256    0.001405  0.000674
  98      -737.128801   -5.080856    0.001391  0.000670
  99      -737.128900   -5.143257    0.001391  0.000668
 100      -737.128999   -5.205352    0.001363  0.000666
 101      -737.129098   -5.267139    0.001350  0.000663
 102      -737.129196   -5.328647    0.001343  0.000661
 103      -737.129293   -5.389859    0.001323  0.000659
 104      -737.129390   -5.450838    0.001311  0.000657
 105      -737.129487   -5.511487    0.001310  0.000654
 106      -737.129583   -5.571908    0.001294  0.000653
 107      -737.129679   -5.631990    0.001327  0.000651
 108      -737.129775   -5.691835    0.001318  0.000648
 109      -737.129869   -5.751377    0.001345  0.000647
 110      -737.129964   -5.810662    0.001329  0.000645
 111      -737.130058   -5.869665    0.001352  0.000643
 112      -737.130152   -5.928444    0.001341  0.000641
 113      -737.130245   -5.986933    0.001367  0.000639
 114      -737.130338   -6.045151    0.001358  0.000638
 115      -737.130430   -6.103107    0.001381  0.000636
 116      -737.130522   -6.160806    0.001369  0.000634
 117      -737.130613   -6.218257    0.001392  0.000633
 118      -737.130705   -6.275427    0.001379  0.000631
 119      -737.130795   -6.332357    0.001400  0.000629
 120      -737.130886   -6.389019    0.001389  0.000628
 121      -737.130975   -6.445415    0.001410  0.000626
 122      -737.131065   -6.501573    0.001399  0.000625
 123      -737.131154   -6.557474    0.001421  0.000623
 124      -737.131243   -6.613105    0.001411  0.000621
 125      -737.131331   -6.668533    0.001433  0.000620
 126      -737.131419   -6.723654    0.001422  0.000618
 127      -737.131506   -6.778580    0.001434  0.000617
 128      -737.131594   -6.833247    0.001425  0.000616
 129      -737.131680   -6.887661    0.001440  0.000614
 130      -737.131767   -6.941879    0.001429  0.000613
 131      -737.131853   -6.995870    0.001446  0.000611
 132      -737.131938   -7.049637    0.001437  0.000610
 133      -737.132024   -7.103152    0.001453  0.000608
 134      -737.132109   -7.156458    0.001445  0.000607
 135      -737.132193   -7.209589    0.001462  0.000605
 136      -737.132277   -7.262433    0.001447  0.000604
 137      -737.132361   -7.315114    0.001466  0.000602
 138      -737.132445   -7.367551    0.001456  0.000601
 139      -737.132528   -7.419827    0.001464  0.000599
 140      -737.132611   -7.471956    0.001455  0.000598
 141      -737.132694   -7.523815    0.001471  0.000596
 142      -737.132776   -7.575500    0.001463  0.000595
 143      -737.132858   -7.627032    0.001471  0.000593
 144      -737.132940   -7.678415    0.001459  0.000592
 145      -737.133022   -7.729560    0.001469  0.000590
 146      -737.133103   -7.780542    0.001472  0.000589
 147      -737.133184   -7.831333    0.001472  0.000587
 148      -737.133265   -7.882017    0.001473  0.000586
 149      -737.133345   -7.932567    0.001473  0.000584
 150      -737.133426   -7.983033    0.001477  0.000585
 151      -737.133505   -8.032994    0.001473  0.000583
 152      -737.133585   -8.082989    0.001477  0.000580
 153      -737.133665   -8.132951    0.001476  0.000579
 154      -737.133744   -8.182705    0.001475  0.000577
 155      -737.133823   -8.232392    0.001476  0.000575
 156      -737.133902   -8.281969    0.001475  0.000574
 157      -737.133981   -8.331452    0.001475  0.000572
 158      -737.134060   -8.380830    0.001475  0.000571
 159      -737.134138   -8.430154    0.001475  0.000570
 160      -737.134217   -8.479274    0.001474  0.000568
 161      -737.134295   -8.528342    0.001474  0.000567
 162      -737.134373   -8.577316    0.001472  0.000565
 163      -737.134451   -8.626257    0.001474  0.000565
 164      -737.134528   -8.674976    0.001470  0.000563
 165      -737.134606   -8.723683    0.001471  0.000561
 166      -737.134684   -8.772296    0.001468  0.000560
 167      -737.134761   -8.820840    0.001469  0.000559
 168      -737.134838   -8.869322    0.001466  0.000558
 169      -737.134915   -8.917779    0.001466  0.000557
 170      -737.134993   -8.966146    0.001464  0.000555
 171      -737.135069   -9.014460    0.001463  0.000554
 172      -737.135146   -9.062712    0.001461  0.000553
 173      -737.135223   -9.110901    0.001460  0.000552
 174      -737.135300   -9.159066    0.001458  0.000551
 175      -737.135377   -9.207180    0.001457  0.000550
 176      -737.135453   -9.255259    0.001455  0.000549
 177      -737.135530   -9.303314    0.001454  0.000548
 178      -737.135606   -9.351349    0.001452  0.000548
 179      -737.135683   -9.399321    0.001450  0.000547
 180      -737.135759   -9.447293    0.001448  0.000546
 181      -737.135836   -9.495241    0.001446  0.000545
 182      -737.135912   -9.543173    0.001444  0.000545
 183      -737.135988   -9.591090    0.001442  0.000544
 184      -737.136065   -9.639029    0.001440  0.000543
 185      -737.136141   -9.686947    0.001438  0.000543
 186      -737.136218   -9.734897    0.001436  0.000542
 187      -737.136294   -9.782812    0.001434  0.000542
 188      -737.136370   -9.830713    0.001432  0.000541
 189      -737.136447   -9.878634    0.001430  0.000541
 190      -737.136523   -9.926568    0.001428  0.000540
 191      -737.136599   -9.974505    0.001426  0.000540
 192      -737.136676   -10.022483    0.001424  0.000540
 193      -737.136752   -10.070505    0.001422  0.000539
 194      -737.136829   -10.118490    0.001420  0.000539
 195      -737.136905   -10.166534    0.001417  0.000539
 196      -737.136982   -10.214589    0.001415  0.000539
 197      -737.137059   -10.262683    0.001413  0.000539
 198      -737.137135   -10.310825    0.001411  0.000539
 199      -737.137212   -10.358973    0.001409  0.000539
 200      -737.137289   -10.407146    0.001407  0.000539
 201      -737.137366   -10.455355    0.001405  0.000539
 202      -737.137443   -10.503614    0.001402  0.000539
 203      -737.137520   -10.551929    0.001400  0.000539
 204      -737.137597   -10.600257    0.001398  0.000539
 205      -737.137674   -10.648647    0.001396  0.000539
 206      -737.137751   -10.697077    0.001394  0.000540
 207      -737.137828   -10.745519    0.001392  0.000540
 208      -737.137905   -10.793988    0.001390  0.000540
 209      -737.137983   -10.842590    0.001387  0.000540
 210      -737.138060   -10.891179    0.001385  0.000541
 211      -737.138138   -10.939800    0.001383  0.000541
 212      -737.138215   -10.988480    0.001381  0.000542
 213      -737.138293   -11.037192    0.001379  0.000542
 214      -737.138371   -11.085986    0.001377  0.000543
 215      -737.138448   -11.134801    0.001375  0.000543
 216      -737.138526   -11.183635    0.001373  0.000544
 217      -737.138604   -11.232538    0.001371  0.000545
 218      -737.138682   -11.281467    0.001369  0.000545
 219      -737.138760   -11.330463    0.001367  0.000546
 220      -737.138838   -11.379485    0.001365  0.000546
 221      -737.138917   -11.428534    0.001363  0.000547
 222      -737.138995   -11.477624    0.001361  0.000548
 223      -737.139073   -11.526715    0.001359  0.000549
 224      -737.139151   -11.575836    0.001357  0.000549
 225      -737.139230   -11.625003    0.001355  0.000550
 226      -737.139308   -11.674166    0.001353  0.000551
 227      -737.139386   -11.723370    0.001351  0.000551
 228      -737.139465   -11.772583    0.001349  0.000552
 229      -737.139543   -11.821792    0.001359  0.000553
 230      -737.139622   -11.870995    0.001368  0.000553
 231      -737.139700   -11.920261    0.001379  0.000554
 232      -737.139779   -11.969501    0.001388  0.000554
 233      -737.139857   -12.018737    0.001397  0.000555
 234      -737.139936   -12.067975    0.001406  0.000555
 235      -737.140014   -12.117199    0.001414  0.000555
 236      -737.140092   -12.166408    0.001420  0.000556
 237      -737.140171   -12.215611    0.001426  0.000556
 238      -737.140249   -12.264803    0.001430  0.000556
 239      -737.140328   -12.313988    0.001436  0.000556
 240      -737.140406   -12.363147    0.001441  0.000556
 241      -737.140484   -12.412259    0.001444  0.000556
 242      -737.140563   -12.461390    0.001448  0.000556
 243      -737.140641   -12.510496    0.001449  0.000556
 244      -737.140719   -12.559573    0.001451  0.000556
 245      -737.140797   -12.608602    0.001450  0.000555
 246      -737.140875   -12.657617    0.001449  0.000555
 247      -737.140953   -12.706635    0.001484  0.000555
 248      -737.141031   -12.755565    0.001485  0.000554
 249      -737.141109   -12.804489    0.001444  0.000553
 250      -737.141187   -12.853385    0.001446  0.000553
 251      -737.141265   -12.902244    0.001484  0.000552
 252      -737.141343   -12.951053    0.001470  0.000551
 253      -737.141421   -12.999893    0.001466  0.000551
 254      -737.141498   -13.048677    0.001500  0.000553
 255      -737.141576   -13.097090    0.001589  0.000553
 256      -737.141653   -13.145353    0.001551  0.000549
 257      -737.141730   -13.193940    0.001441  0.000547
 258      -737.141807   -13.242524    0.001391  0.000547
 259      -737.141885   -13.290956    0.001436  0.000545
 260      -737.141962   -13.339525    0.001512  0.000544
 261      -737.142039   -13.387989    0.001534  0.000543
 262      -737.142116   -13.436450    0.001458  0.000541
 263      -737.142194   -13.484927    0.001461  0.000540
 264      -737.142271   -13.533380    0.001508  0.000539
 265      -737.142348   -13.581738    0.001471  0.000537
 266      -737.142425   -13.630146    0.001479  0.000536
 267      -737.142502   -13.678458    0.001503  0.000537
 268      -737.142579   -13.726473    0.001563  0.000536
 269      -737.142655   -13.774419    0.001533  0.000533
 270      -737.142732   -13.822595    0.001441  0.000532
 271      -737.142808   -13.870707    0.001394  0.000532
 272      -737.142885   -13.918577    0.001467  0.000528
 273      -737.142961   -13.966672    0.001518  0.000528
 274      -737.143038   -14.014630    0.001538  0.000526
 275      -737.143114   -14.062571    0.001471  0.000525
 276      -737.143191   -14.110489    0.001472  0.000524
 277      -737.143267   -14.158351    0.001505  0.000522
 278      -737.143343   -14.206182    0.001493  0.000521
 279      -737.143419   -14.253948    0.001499  0.000520
 280      -737.143495   -14.301638    0.001524  0.000519
 281      -737.143571   -14.349317    0.001533  0.000518
 282      -737.143647   -14.396931    0.001575  0.000518
 283      -737.143723   -14.444433    0.001537  0.000516
 284      -737.143798   -14.491915    0.001563  0.000515
 285      -737.143874   -14.539336    0.001566  0.000515
 286      -737.143949   -14.586659    0.001535  0.000515
 287      -737.144024   -14.633774    0.001518  0.000515
 288      -737.144099   -14.680775    0.001588  0.000512
 289      -737.144174   -14.727898    0.001582  0.000512
 290      -737.144249   -14.774895    0.001603  0.000511
 291      -737.144324   -14.821891    0.001621  0.000510
 292      -737.144399   -14.868761    0.001624  0.000509
 293      -737.144474   -14.915552    0.001640  0.000509
 294      -737.144548   -14.962263    0.001649  0.000508
 295      -737.144622   -15.008871    0.001663  0.000507
 296      -737.144696   -15.055372    0.001670  0.000507
 297      -737.144770   -15.101799    0.001686  0.000506
 298      -737.144844   -15.148114    0.001692  0.000505
 299      -737.144918   -15.194336    0.001704  0.000504
 300      -737.144991   -15.240446    0.001711  0.000504
 301      -737.145065   -15.286471    0.001722  0.000503
 302      -737.145138   -15.332339    0.001726  0.000502
 303      -737.145211   -15.378134    0.001738  0.000501
 304      -737.145283   -15.423823    0.001743  0.000500
 305      -737.145356   -15.469383    0.001750  0.000499

Timings for individual modules:

Sum of individual times         ...    23226.872 sec (= 387.115 min)
GTO integral calculation        ...      881.452 sec (=  14.691 min)   3.8 %
SCF iterations                  ...    18972.666 sec (= 316.211 min)  81.7 %
SCF Gradient evaluation         ...     3372.754 sec (=  56.213 min)  14.5 %
================================================================================

cite the ECPs for Pd [Def2-ECP] as follows:
Ce-Yb(ecp-28): M. Dolg, H. Stoll, H.Preuss, J. Chem. Phys., 1989, 90, 1730-1734.
Y-Cd(ecp-28), Hf-Hg(ecp-46): D. Andrae,U. Haeussermann, M. Dolg, H. Stoll, H. Preuss, Theor. Chim. Acta, 1990, 77, 123-141.
In-Sb(ecp-28), Tl-Bi(ecp-46): B. Metz, H. Stoll, M. Dolg, J. Chem. Phys., 2000, 113, 2563-2569.
Te-Xe(ecp-28), Po-Rn(ecp-46): K. A. Peterson, D. Figgen, E. Goll, H. Stoll, M. Dolg, J. Chem. Phys., 2003, 119, 11113-11123.
Rb(ecp-28), Cs(ecp-46): T. Leininger, A. Nicklass, W. Kuechle, H. Stoll, M. Dolg, A. Bergner, Chem. Phys. Lett., 1996, 255, 274-280.
Sr(ecp-28), Ba(ecp-46): M. Kaupp, P. V. Schleyer, H. Stoll and H. Preuss, J. Chem. Phys., 1991, 94, 1360-1366.
La(ecp-46): M. Dolg, H. Stoll, A. Savin, H. Preuss, Theor. Chim. Acta, 1989, 75, 173-194.
Lu(ecp-28): X. Cao, M. Dolg, J. Chem. Phys., 2001, 115, 7348-7355.

ECP parameters for Pd [Def2-ECP] have been obtained from:
TURBOMOLE (7.0.2)

----- Orbital basis set information -----
Your calculation utilizes the basis: def2-SVP
   F. Weigend and R. Ahlrichs, Phys. Chem. Chem. Phys. 7, 3297 (2005).

                             ****ORCA TERMINATED NORMALLY****
TOTAL RUN TIME: 0 days 7 hours 2 minutes 49 seconds 256 msec
