
                                 *****************
                                 * O   R   C   A *
                                 *****************

                                            #,                                       
                                            ###                                      
                                            ####                                     
                                            #####                                    
                                            ######                                   
                                           ########,                                 
                                     ,,################,,,,,                         
                               ,,#################################,,                 
                          ,,##########################################,,             
                       ,#########################################, ''#####,          
                    ,#############################################,,   '####,        
                  ,##################################################,,,,####,       
                ,###########''''           ''''###############################       
              ,#####''   ,,,,##########,,,,          '''####'''          '####       
            ,##' ,,,,###########################,,,                        '##       
           ' ,,###''''                  '''############,,,                           
         ,,##''                                '''############,,,,        ,,,,,,###''
      ,#''                                            '''#######################'''  
     '                                                          ''''####''''         
             ,#######,   #######,   ,#######,      ##                                
            ,#'     '#,  ##    ##  ,#'     '#,    #''#        ######   ,####,        
            ##       ##  ##   ,#'  ##            #'  '#       #        #'  '#        
            ##       ##  #######   ##           ,######,      #####,   #    #        
            '#,     ,#'  ##    ##  '#,     ,#' ,#      #,         ##   #,  ,#        
             '#######'   ##     ##  '#######'  #'      '#     #####' # '####'        



                  #######################################################
                  #                        -***-                        #
                  #          Department of theory and spectroscopy      #
                  #    Directorship and core code : Frank Neese         #
                  #        Max Planck Institute fuer Kohlenforschung    #
                  #                Kaiser Wilhelm Platz 1               #
                  #                 D-45470 Muelheim/Ruhr               #
                  #                      Germany                        #
                  #                                                     #
                  #                  All rights reserved                #
                  #                        -***-                        #
                  #######################################################


                         Program Version 5.0.4 -  RELEASE  -


 With contributions from (in alphabetic order):
   Daniel Aravena         : Magnetic Suceptibility
   Michael Atanasov       : Ab Initio Ligand Field Theory (pilot matlab implementation)
   Alexander A. Auer      : GIAO ZORA, VPT2 properties, NMR spectrum
   Ute Becker             : Parallelization
   Giovanni Bistoni       : ED, misc. LED, open-shell LED, HFLD
   Martin Brehm           : Molecular dynamics
   Dmytro Bykov           : SCF Hessian
   Vijay G. Chilkuri      : MRCI spin determinant printing, contributions to CSF-ICE
   Dipayan Datta          : RHF DLPNO-CCSD density
   Achintya Kumar Dutta   : EOM-CC, STEOM-CC
   Dmitry Ganyushin       : Spin-Orbit,Spin-Spin,Magnetic field MRCI
   Miquel Garcia          : C-PCM and meta-GGA Hessian, CC/C-PCM, Gaussian charge scheme
   Yang Guo               : DLPNO-NEVPT2, F12-NEVPT2, CIM, IAO-localization
   Andreas Hansen         : Spin unrestricted coupled pair/coupled cluster methods
   Benjamin Helmich-Paris : MC-RPA, TRAH-SCF, COSX integrals
   Lee Huntington         : MR-EOM, pCC
   Robert Izsak           : Overlap fitted RIJCOSX, COSX-SCS-MP3, EOM
   Marcus Kettner         : VPT2
   Christian Kollmar      : KDIIS, OOCD, Brueckner-CCSD(T), CCSD density, CASPT2, CASPT2-K
   Simone Kossmann        : Meta GGA functionals, TD-DFT gradient, OOMP2, MP2 Hessian
   Martin Krupicka        : Initial AUTO-CI
   Lucas Lang             : DCDCAS
   Marvin Lechner         : AUTO-CI (C++ implementation), FIC-MRCC
   Dagmar Lenk            : GEPOL surface, SMD
   Dimitrios Liakos       : Extrapolation schemes; Compound Job, initial MDCI parallelization
   Dimitrios Manganas     : Further ROCIS development; embedding schemes
   Dimitrios Pantazis     : SARC Basis sets
   Anastasios Papadopoulos: AUTO-CI, single reference methods and gradients
   Taras Petrenko         : DFT Hessian,TD-DFT gradient, ASA, ECA, R-Raman, ABS, FL, XAS/XES, NRVS
   Peter Pinski           : DLPNO-MP2, DLPNO-MP2 Gradient
   Christoph Reimann      : Effective Core Potentials
   Marius Retegan         : Local ZFS, SOC
   Christoph Riplinger    : Optimizer, TS searches, QM/MM, DLPNO-CCSD(T), (RO)-DLPNO pert. Triples
   Tobias Risthaus        : Range-separated hybrids, TD-DFT gradient, RPA, STAB
   Michael Roemelt        : Original ROCIS implementation
   Masaaki Saitow         : Open-shell DLPNO-CCSD energy and density
   Barbara Sandhoefer     : DKH picture change effects
   Avijit Sen             : IP-ROCIS
   Kantharuban Sivalingam : CASSCF convergence, NEVPT2, FIC-MRCI
   Bernardo de Souza      : ESD, SOC TD-DFT
   Georgi Stoychev        : AutoAux, RI-MP2 NMR, DLPNO-MP2 response
   Willem Van den Heuvel  : Paramagnetic NMR
   Boris Wezisla          : Elementary symmetry handling
   Frank Wennmohs         : Technical directorship


 We gratefully acknowledge several colleagues who have allowed us to
 interface, adapt or use parts of their codes:
   Stefan Grimme, W. Hujo, H. Kruse, P. Pracht,  : VdW corrections, initial TS optimization,
                  C. Bannwarth, S. Ehlert          DFT functionals, gCP, sTDA/sTD-DF
   Ed Valeev, F. Pavosevic, A. Kumar             : LibInt (2-el integral package), F12 methods
   Garnet Chan, S. Sharma, J. Yang, R. Olivares  : DMRG
   Ulf Ekstrom                                   : XCFun DFT Library
   Mihaly Kallay                                 : mrcc  (arbitrary order and MRCC methods)
   Jiri Pittner, Ondrej Demel                    : Mk-CCSD
   Frank Weinhold                                : gennbo (NPA and NBO analysis)
   Christopher J. Cramer and Donald G. Truhlar   : smd solvation model
   Lars Goerigk                                  : TD-DFT with DH, B97 family of functionals
   V. Asgeirsson, H. Jonsson                     : NEB implementation
   FAccTs GmbH                                   : IRC, NEB, NEB-TS, DLPNO-Multilevel, CI-OPT
                                                   MM, QMMM, 2- and 3-layer-ONIOM, Crystal-QMMM,
                                                   LR-CPCM, SF, NACMEs, symmetry and pop. for TD-DFT,
                                                   nearIR, NL-DFT gradient (VV10), updates on ESD,
                                                   ML-optimized integration grids
   S Lehtola, MJT Oliveira, MAL Marques          : LibXC Library
   Liviu Ungur et al                             : ANISO software


 Your calculation uses the libint2 library for the computation of 2-el integrals
 For citations please refer to: http://libint.valeyev.net

 Your ORCA version has been built with support for libXC version: 5.1.0
 For citations please refer to: https://tddft.org/programs/libxc/

 This ORCA versions uses:
   CBLAS   interface :  Fast vector & matrix operations
   LAPACKE interface :  Fast linear algebra routines
   SCALAPACK package :  Parallel linear algebra routines
   Shared memory     :  Shared parallel matrices
   BLAS/LAPACK       :  OpenBLAS 0.3.15  USE64BITINT DYNAMIC_ARCH NO_AFFINITY SkylakeX SINGLE_THREADED
        Core in use  :  SkylakeX
   Copyright (c) 2011-2014, The OpenBLAS Project




***************************************
The coordinates will be read from file: cineb-5-peak.xyz
***************************************




################################################################################


                                COMPOUND JOB MainJOB 
Basename: reaction-0-cineb5_optts_Compound_0

################################################################################

================================================================================
                                       INPUT FILE
================================================================================
NAME = reaction-0-cineb5_optts_Compound_0.inp
|  1> %pal nprocs 8 end 
|  2>   
|  3>  *xyzfile 0 1 cineb-5-peak.xyz 
|  4>   
|  5> 
|  6>                          ****END OF INPUT****
================================================================================


***************************************
The coordinates will be read from file: cineb-5-peak.xyz
***************************************


================================================================================

cite the ECPs for Pd [Def2-ECP] as follows:
Ce-Yb(ecp-28): M. Dolg, H. Stoll, H.Preuss, J. Chem. Phys., 1989, 90, 1730-1734.
Y-Cd(ecp-28), Hf-Hg(ecp-46): D. Andrae,U. Haeussermann, M. Dolg, H. Stoll, H. Preuss, Theor. Chim. Acta, 1990, 77, 123-141.
In-Sb(ecp-28), Tl-Bi(ecp-46): B. Metz, H. Stoll, M. Dolg, J. Chem. Phys., 2000, 113, 2563-2569.
Te-Xe(ecp-28), Po-Rn(ecp-46): K. A. Peterson, D. Figgen, E. Goll, H. Stoll, M. Dolg, J. Chem. Phys., 2003, 119, 11113-11123.
Rb(ecp-28), Cs(ecp-46): T. Leininger, A. Nicklass, W. Kuechle, H. Stoll, M. Dolg, A. Bergner, Chem. Phys. Lett., 1996, 255, 274-280.
Sr(ecp-28), Ba(ecp-46): M. Kaupp, P. V. Schleyer, H. Stoll and H. Preuss, J. Chem. Phys., 1991, 94, 1360-1366.
La(ecp-46): M. Dolg, H. Stoll, A. Savin, H. Preuss, Theor. Chim. Acta, 1989, 75, 173-194.
Lu(ecp-28): X. Cao, M. Dolg, J. Chem. Phys., 2001, 115, 7348-7355.

ECP parameters for Pd [Def2-ECP] have been obtained from:
TURBOMOLE (7.0.2)

----- Orbital basis set information -----
Your calculation utilizes the basis: def2-SVP
   F. Weigend and R. Ahlrichs, Phys. Chem. Chem. Phys. 7, 3297 (2005).



################################################################################


                                COMPOUND JOB  1 
Basename: reaction-0-cineb5_optts_Compound_1
NOTE: please remember that MaxCore and PAL settings will be ignored.

################################################################################

================================================================================
                                       INPUT FILE
================================================================================
NAME = reaction-0-cineb5_optts_Compound_1.inp
|  1>   
|  2>    
|  3>   ! PBEh-3c OptTS Freq pal8 
|  4>    
|  5>   %geom 
|  6>    calc_hess true 
|  7>    recalc_hess 20 
|  8>    maxiter 600 
|  9>   end  
| 10>    
| 11> 
| 12>                          ****END OF INPUT****
================================================================================
Your calculation utilizes the geometrical counterpoise correction gCP
Please cite in your paper:
H.Kruse, S. Grimme J.Chem.Phys., 136, (2012), 154101 
   

Your calculation utilizes the atom-pairwise dispersion correction
with the Becke-Johnson damping scheme (D3BJ)
Cite in your paper:
S.Grimme, S.Ehrlich, L.Goerigk, J Comput Chem, (2011), 32, 1456–1465 
S.Grimme, J.Antony, S.Ehrlich and H.Krieg, J.Chem.Phys., 132, (2010), 154104 
   

Your calculation employs the composite approach PBEh-3c.
Please cite in your paper:
S. Grimme, J. G. Brandenburg, C. Bannwarth, A. Hansen J.Chem.Phys., 143, (2015), 054107 
   

================================================================================

cite the ECPs for Pd [Def2-ECP] as follows:
Ce-Yb(ecp-28): M. Dolg, H. Stoll, H.Preuss, J. Chem. Phys., 1989, 90, 1730-1734.
Y-Cd(ecp-28), Hf-Hg(ecp-46): D. Andrae,U. Haeussermann, M. Dolg, H. Stoll, H. Preuss, Theor. Chim. Acta, 1990, 77, 123-141.
In-Sb(ecp-28), Tl-Bi(ecp-46): B. Metz, H. Stoll, M. Dolg, J. Chem. Phys., 2000, 113, 2563-2569.
Te-Xe(ecp-28), Po-Rn(ecp-46): K. A. Peterson, D. Figgen, E. Goll, H. Stoll, M. Dolg, J. Chem. Phys., 2003, 119, 11113-11123.
Rb(ecp-28), Cs(ecp-46): T. Leininger, A. Nicklass, W. Kuechle, H. Stoll, M. Dolg, A. Bergner, Chem. Phys. Lett., 1996, 255, 274-280.
Sr(ecp-28), Ba(ecp-46): M. Kaupp, P. V. Schleyer, H. Stoll and H. Preuss, J. Chem. Phys., 1991, 94, 1360-1366.
La(ecp-46): M. Dolg, H. Stoll, A. Savin, H. Preuss, Theor. Chim. Acta, 1989, 75, 173-194.
Lu(ecp-28): X. Cao, M. Dolg, J. Chem. Phys., 2001, 115, 7348-7355.

ECP parameters for Pd [Def2-ECP] have been obtained from:
TURBOMOLE (7.0.2)

----- Orbital basis set information -----
Your calculation utilizes the basis: def2-mSVP

----- AuxJ basis set information -----
Your calculation utilizes the auxiliary basis: def2/J
   F. Weigend, Phys. Chem. Chem. Phys. 8, 1057 (2006).

================================================================================
                                        WARNINGS
                       Please study these warnings very carefully!
================================================================================


WARNING: Geometry Optimization
  ===> : Switching off AutoStart
         For restart on a previous wavefunction, please use MOREAD

INFO   : the flag for use of the SHARK integral package has been found!


                       *****************************
                       * Geometry Optimization Run *
                       *****************************

Geometry optimization settings:
Update method            Update   .... Bofill
Choice of coordinates    CoordSys .... Z-matrix Internals
Initial Hessian          InHess   .... Almoef's Model

Convergence Tolerances:
Energy Change            TolE     ....  5.0000e-06 Eh
Max. Gradient            TolMAXG  ....  3.0000e-04 Eh/bohr
RMS Gradient             TolRMSG  ....  1.0000e-04 Eh/bohr
Max. Displacement        TolMAXD  ....  4.0000e-03 bohr
RMS Displacement         TolRMSD  ....  2.0000e-03 bohr
Strict Convergence                ....  False
------------------------------------------------------------------------------
                        ORCA OPTIMIZATION COORDINATE SETUP
------------------------------------------------------------------------------

The optimization will be done in new redundant internal coordinates
Making redundant internal coordinates   ...  (new redundants) done
Following TS mode number                ...     0
Evaluating the initial hessian          ...  (Is done on the fly) done
Evaluating the coordinates              ...  done
Calculating the B-matrix                .... done
Calculating the G-matrix                .... done
Diagonalizing the G-matrix              .... done
The first mode is                       ....  150
The number of degrees of freedom        ....   57

    -----------------------------------------------------------------
                    Redundant Internal Coordinates


    -----------------------------------------------------------------
         Definition                    Initial Value    d2E/dq (diagonal element)
    -----------------------------------------------------------------
      1. B(C   1,C   0)                  1.3933         0.000000   
      2. B(C   2,C   1)                  1.3874         0.000000   
      3. B(C   3,C   2)                  1.3848         0.000000   
      4. B(C   4,C   0)                  1.4251         0.000000   
      5. B(C   5,C   3)                  1.3931         0.000000   
      6. B(C   5,C   4)                  1.4096         0.000000   
      7. B(H   6,C   0)                  1.0894         0.000000   
      8. B(H   7,C   1)                  1.0802         0.000000   
      9. B(H   8,C   2)                  1.0796         0.000000   
     10. B(H   9,C   5)                  1.0879         0.000000   
     11. B(H  10,C   3)                  1.0794         0.000000   
     12. B(Pd 11,C   4)                  2.2906         0.000000   
     13. B(O  12,Pd 11)                  2.1506         0.000000   
     14. B(O  13,Pd 11)                  1.9727         0.000000   
     15. B(O  14,Pd 11)                  1.9980         0.000000   
     16. B(C  15,O  14)                  1.2575         0.000000   
     17. B(C  15,Pd 11)                  2.7624         0.000000   
     18. B(O  16,C  15)                  1.2388         0.000000   
     19. B(H  17,O  16)                  1.3138         0.000000   
     20. B(H  17,Pd 11)                  2.1589         0.000000   
     21. B(H  17,C   4)                  1.3268         0.000000   
     22. B(C  18,O  13)                  1.2652         0.000000   
     23. B(C  18,O  12)                  1.2477         0.000000   
     24. B(C  18,Pd 11)                  2.3860         0.000000   
     25. B(H  19,C  18)                  1.0920         0.000000   
     26. B(H  20,C  15)                  1.0742         0.000000   
     27. A(C   1,C   0,C   4)          122.4368         0.000000   
     28. A(C   1,C   0,H   6)          119.2998         0.000000   
     29. A(C   4,C   0,H   6)          118.2163         0.000000   
     30. A(C   0,C   1,C   2)          120.4214         0.000000   
     31. A(C   0,C   1,H   7)          119.7292         0.000000   
     32. A(C   2,C   1,H   7)          119.4302         0.000000   
     33. A(C   3,C   2,H   8)          120.1455         0.000000   
     34. A(C   1,C   2,C   3)          118.9053         0.000000   
     35. A(C   1,C   2,H   8)          120.8885         0.000000   
     36. A(C   2,C   3,H  10)          120.3000         0.000000   
     37. A(C   5,C   3,H  10)          118.9180         0.000000   
     38. A(C   2,C   3,C   5)          120.4985         0.000000   
     39. A(Pd 11,C   4,H  17)           67.2928         0.000000   
     40. A(C   5,C   4,H  17)          121.4512         0.000000   
     41. A(C   5,C   4,Pd 11)          103.2830         0.000000   
     42. A(C   0,C   4,Pd 11)          103.4001         0.000000   
     43. A(C   0,C   4,H  17)          123.9124         0.000000   
     44. A(C   0,C   4,C   5)          114.5628         0.000000   
     45. A(C   4,C   5,H   9)          116.9304         0.000000   
     46. A(C   3,C   5,C   4)          122.8123         0.000000   
     47. A(C   3,C   5,H   9)          120.0496         0.000000   
     48. A(C  15,Pd 11,C  18)          152.1490         0.000000   
     49. A(O  14,Pd 11,C  18)          140.0773         0.000000   
     50. A(O  13,Pd 11,C  18)           31.9948         0.000000   
     51. A(O  13,Pd 11,C  15)          153.8248         0.000000   
     52. A(O  12,Pd 11,C  15)          126.9145         0.000000   
     53. A(O  14,Pd 11,C  15)           24.5413         0.000000   
     54. A(H  17,Pd 11,C  18)          151.5615         0.000000   
     55. A(C   4,Pd 11,C  15)           73.0717         0.000000   
     56. A(O  13,Pd 11,O  14)          168.6327         0.000000   
     57. A(O  12,Pd 11,C  18)           31.3824         0.000000   
     58. A(O  12,Pd 11,O  14)          109.0831         0.000000   
     59. A(C   4,Pd 11,C  18)          133.1178         0.000000   
     60. A(C   4,Pd 11,O  14)           85.7492         0.000000   
     61. A(O  12,Pd 11,O  13)           63.3572         0.000000   
     62. A(C   4,Pd 11,O  13)          104.1812         0.000000   
     63. A(C  15,Pd 11,H  17)           44.4241         0.000000   
     64. A(O  14,Pd 11,H  17)           65.0937         0.000000   
     65. A(O  13,Pd 11,H  17)          120.5815         0.000000   
     66. A(C   4,Pd 11,O  12)          157.0954         0.000000   
     67. A(O  12,Pd 11,H  17)          168.3206         0.000000   
     68. A(C   4,Pd 11,H  17)           34.5365         0.000000   
     69. A(Pd 11,O  12,C  18)           84.7703         0.000000   
     70. A(Pd 11,O  13,C  18)           92.3032         0.000000   
     71. A(Pd 11,O  14,C  15)          114.1644         0.000000   
     72. A(Pd 11,C  15,O  16)           84.5538         0.000000   
     73. A(O  14,C  15,H  20)          115.3266         0.000000   
     74. A(Pd 11,C  15,O  14)           41.2943         0.000000   
     75. A(Pd 11,C  15,H  20)          156.3993         0.000000   
     76. A(O  16,C  15,H  20)          119.0431         0.000000   
     77. A(O  14,C  15,O  16)          125.1009         0.000000   
     78. A(C  15,O  16,H  17)           99.0618         0.000000   
     79. A(Pd 11,H  17,O  16)          112.0434         0.000000   
     80. A(C   4,H  17,O  16)          163.7306         0.000000   
     81. A(C   4,H  17,Pd 11)           78.1707         0.000000   
     82. A(O  13,C  18,H  19)          117.0530         0.000000   
     83. A(O  12,C  18,H  19)          123.4495         0.000000   
     84. A(Pd 11,C  18,H  19)          172.1574         0.000000   
     85. A(O  12,C  18,O  13)          119.4938         0.000000   
     86. A(Pd 11,C  18,O  13)           55.7020         0.000000   
     87. A(Pd 11,C  18,O  12)           63.8473         0.000000   
     88. D(C   2,C   1,C   0,H   6)    178.2465         0.000000   
     89. D(H   7,C   1,C   0,C   4)   -171.7403         0.000000   
     90. D(H   7,C   1,C   0,H   6)      5.7192         0.000000   
     91. D(C   2,C   1,C   0,C   4)      0.7871         0.000000   
     92. D(C   3,C   2,C   1,C   0)      3.3977         0.000000   
     93. D(H   8,C   2,C   1,H   7)     -1.2251         0.000000   
     94. D(H   8,C   2,C   1,C   0)   -173.7746         0.000000   
     95. D(C   3,C   2,C   1,H   7)    175.9473         0.000000   
     96. D(H  10,C   3,C   2,C   1)   -176.3074         0.000000   
     97. D(C   5,C   3,C   2,C   1)     -2.4893         0.000000   
     98. D(C   5,C   3,C   2,H   8)    174.7045         0.000000   
     99. D(H  10,C   3,C   2,H   8)      0.8865         0.000000   
    100. D(C   5,C   4,C   0,C   1)     -5.5309         0.000000   
    101. D(C   5,C   4,C   0,H   6)    176.9834         0.000000   
    102. D(H  17,C   4,C   0,H   6)      0.0691         0.000000   
    103. D(Pd 11,C   4,C   0,H   6)    -71.3887         0.000000   
    104. D(H  17,C   4,C   0,C   1)    177.5549         0.000000   
    105. D(Pd 11,C   4,C   0,C   1)    106.0970         0.000000   
    106. D(C   3,C   5,C   4,C   0)      6.4904         0.000000   
    107. D(H   9,C   5,C   4,H  17)     -1.7551         0.000000   
    108. D(H   9,C   5,C   4,Pd 11)     69.5488         0.000000   
    109. D(H   9,C   5,C   3,C   2)   -177.3128         0.000000   
    110. D(H   9,C   5,C   4,C   0)   -178.7533         0.000000   
    111. D(C   4,C   5,C   3,H  10)    171.1882         0.000000   
    112. D(C   3,C   5,C   4,Pd 11)   -105.2074         0.000000   
    113. D(C   3,C   5,C   4,H  17)   -176.5114         0.000000   
    114. D(C   4,C   5,C   3,C   2)     -2.7143         0.000000   
    115. D(H   9,C   5,C   3,H  10)     -3.4102         0.000000   
    116. D(O  12,Pd 11,C   4,H  17)    177.7676         0.000000   
    117. D(O  12,Pd 11,C   4,C   5)     58.9271         0.000000   
    118. D(O  12,Pd 11,C   4,C   0)    -60.7633         0.000000   
    119. D(C  18,Pd 11,C   4,H  17)    139.8434         0.000000   
    120. D(C  18,Pd 11,C   4,C   5)     21.0028         0.000000   
    121. D(H  17,Pd 11,C   4,C   5)   -118.8405         0.000000   
    122. D(H  17,Pd 11,C   4,C   0)    121.4691         0.000000   
    123. D(C  15,Pd 11,C   4,H  17)    -29.0099         0.000000   
    124. D(O  14,Pd 11,C   4,C   0)     71.0290         0.000000   
    125. D(O  13,Pd 11,C   4,H  17)    123.9481         0.000000   
    126. D(O  14,Pd 11,C   4,C   5)   -169.2806         0.000000   
    127. D(C  15,Pd 11,C   4,C   0)     92.4592         0.000000   
    128. D(C  15,Pd 11,C   4,C   5)   -147.8504         0.000000   
    129. D(C  18,Pd 11,C   4,C   0)    -98.6876         0.000000   
    130. D(O  14,Pd 11,C   4,H  17)    -50.4400         0.000000   
    131. D(O  13,Pd 11,C   4,C   5)      5.1076         0.000000   
    132. D(O  13,Pd 11,C   4,C   0)   -114.5828         0.000000   
    133. D(C  18,O  12,Pd 11,H  17)    114.2481         0.000000   
    134. D(C  18,O  12,Pd 11,C  15)    153.1314         0.000000   
    135. D(C  18,O  12,Pd 11,O  14)    172.3937         0.000000   
    136. D(C  18,O  12,Pd 11,O  13)      1.6184         0.000000   
    137. D(C  18,O  12,Pd 11,C   4)    -59.4891         0.000000   
    138. D(C  18,O  13,Pd 11,H  17)   -169.0554         0.000000   
    139. D(C  18,O  13,Pd 11,C  15)   -121.7656         0.000000   
    140. D(C  18,O  13,Pd 11,O  14)    -51.8226         0.000000   
    141. D(C  18,O  13,Pd 11,O  12)     -1.5906         0.000000   
    142. D(C  18,O  13,Pd 11,C   4)    157.8325         0.000000   
    143. D(C  15,O  14,Pd 11,C  18)   -134.4117         0.000000   
    144. D(C  15,O  14,Pd 11,C   4)     57.3037         0.000000   
    145. D(C  15,O  14,Pd 11,O  12)   -140.5776         0.000000   
    146. D(C  15,O  14,Pd 11,O  13)    -93.9440         0.000000   
    147. D(C  15,O  14,Pd 11,H  17)     28.4942         0.000000   
    148. D(O  14,C  15,Pd 11,O  13)    153.5284         0.000000   
    149. D(O  14,C  15,Pd 11,O  12)     48.6430         0.000000   
    150. D(O  14,C  15,Pd 11,C   4)   -118.6886         0.000000   
    151. D(O  16,C  15,O  14,Pd 11)    -12.5852         0.000000   
    152. D(H  20,C  15,Pd 11,C  18)     69.5590         0.000000   
    153. D(H  20,C  15,Pd 11,H  17)   -151.1508         0.000000   
    154. D(H  20,C  15,Pd 11,O  13)    144.1945         0.000000   
    155. D(H  20,C  15,Pd 11,O  12)     39.3091         0.000000   
    156. D(H  20,C  15,Pd 11,C   4)   -128.0225         0.000000   
    157. D(O  16,C  15,Pd 11,C  18)   -111.4229         0.000000   
    158. D(O  16,C  15,Pd 11,H  17)     27.8673         0.000000   
    159. D(O  16,C  15,Pd 11,O  14)    169.6842         0.000000   
    160. D(O  16,C  15,Pd 11,O  13)    -36.7874         0.000000   
    161. D(H  20,C  15,Pd 11,O  14)     -9.3339         0.000000   
    162. D(O  16,C  15,Pd 11,O  12)   -141.6729         0.000000   
    163. D(O  16,C  15,Pd 11,C   4)     50.9956         0.000000   
    164. D(O  14,C  15,Pd 11,C  18)     78.8929         0.000000   
    165. D(H  20,C  15,O  14,Pd 11)    175.8804         0.000000   
    166. D(O  14,C  15,Pd 11,H  17)   -141.8169         0.000000   
    167. D(H  17,O  16,C  15,H  20)    146.5644         0.000000   
    168. D(H  17,O  16,C  15,O  14)    -24.6809         0.000000   
    169. D(H  17,O  16,C  15,Pd 11)    -32.9860         0.000000   
    170. D(Pd 11,H  17,O  16,C  15)     48.4325         0.000000   
    171. D(C   4,H  17,O  16,C  15)    -78.2932         0.000000   
    172. D(O  16,H  17,Pd 11,C  18)    111.9675         0.000000   
    173. D(O  16,H  17,Pd 11,C  15)    -28.2522         0.000000   
    174. D(O  16,H  17,Pd 11,O  14)    -44.6967         0.000000   
    175. D(O  16,H  17,Pd 11,O  12)     17.5577         0.000000   
    176. D(O  16,H  17,Pd 11,C   4)   -166.7372         0.000000   
    177. D(C   4,H  17,Pd 11,C  18)    -81.2953         0.000000   
    178. D(C   4,H  17,Pd 11,C  15)    138.4850         0.000000   
    179. D(C   4,H  17,Pd 11,O  14)    122.0405         0.000000   
    180. D(C   4,H  17,Pd 11,O  13)    -69.1003         0.000000   
    181. D(O  16,H  17,Pd 11,O  13)    124.1625         0.000000   
    182. D(C   4,H  17,Pd 11,O  12)   -175.7052         0.000000   
    183. D(O  16,H  17,C   4,Pd 11)    130.6206         0.000000   
    184. D(O  16,H  17,C   4,C   5)   -137.3152         0.000000   
    185. D(O  16,H  17,C   4,C   0)     39.3947         0.000000   
    186. D(Pd 11,H  17,C   4,C   5)     92.0642         0.000000   
    187. D(Pd 11,H  17,C   4,C   0)    -91.2259         0.000000   
    188. D(H  19,C  18,O  13,Pd 11)   -176.5041         0.000000   
    189. D(H  19,C  18,O  12,Pd 11)    176.6828         0.000000   
    190. D(O  13,C  18,O  12,Pd 11)     -2.5917         0.000000   
    191. D(H  19,C  18,Pd 11,H  17)     43.5258         0.000000   
    192. D(H  19,C  18,Pd 11,C  15)    150.0547         0.000000   
    193. D(H  19,C  18,Pd 11,O  14)   -170.5189         0.000000   
    194. D(H  19,C  18,Pd 11,O  13)     23.4521         0.000000   
    195. D(H  19,C  18,Pd 11,O  12)   -159.2787         0.000000   
    196. D(H  19,C  18,Pd 11,C   4)     -6.6243         0.000000   
    197. D(O  13,C  18,Pd 11,H  17)     20.0737         0.000000   
    198. D(O  13,C  18,Pd 11,C  15)    126.6026         0.000000   
    199. D(O  13,C  18,Pd 11,O  14)    166.0291         0.000000   
    200. D(O  13,C  18,Pd 11,O  12)    177.2692         0.000000   
    201. D(O  13,C  18,Pd 11,C   4)    -30.0764         0.000000   
    202. D(O  12,C  18,Pd 11,H  17)   -157.1955         0.000000   
    203. D(O  12,C  18,Pd 11,C  15)    -50.6666         0.000000   
    204. D(O  12,C  18,Pd 11,O  14)    -11.2401         0.000000   
    205. D(O  12,C  18,O  13,Pd 11)      2.8162         0.000000   
    206. D(O  12,C  18,Pd 11,O  13)   -177.2692         0.000000   
    207. D(O  12,C  18,Pd 11,C   4)    152.6544         0.000000   
    -----------------------------------------------------------------

Number of atoms                         .... 21
Number of degrees of freedom            .... 207

         *************************************************************
         *                GEOMETRY OPTIMIZATION CYCLE   1            *
         *************************************************************
---------------------------------
CARTESIAN COORDINATES (ANGSTROEM)
---------------------------------
  C     -1.602240    0.210380   -0.356930
  C     -2.001980   -0.821700   -1.203280
  C     -1.539990   -2.114350   -1.001720
  C     -0.734010   -2.373870    0.094000
  C     -0.703050    0.003410    0.729100
  C     -0.350970   -1.343550    0.949780
  H     -1.953240    1.223660   -0.549100
  H     -2.576180   -0.595470   -2.089780
  H     -1.763470   -2.899270   -1.708410
  H      0.317740   -1.547830    1.783170
  H     -0.313510   -3.357180    0.240020
  Pd     1.249890    0.943190   -0.012200
  O      2.956290    1.215800   -1.292480
  O      2.491390   -0.581860   -0.168180
  O      0.320420    2.696620    0.219650
  C     -0.106430    2.902940    1.384400
  O     -0.186650    2.046450    2.275790
  H     -0.266820    0.972110    1.523860
  C      3.227700    0.035930   -0.990930
  H      4.073300   -0.513230   -1.410270
  H     -0.547990    3.868430    1.547660

----------------------------
CARTESIAN COORDINATES (A.U.)
----------------------------
  NO LB      ZA    FRAG     MASS         X           Y           Z
   0 C     6.0000    0    12.011   -3.027795    0.397561   -0.674500
   1 C     6.0000    0    12.011   -3.783194   -1.552788   -2.273870
   2 C     6.0000    0    12.011   -2.910159   -3.995542   -1.892976
   3 C     6.0000    0    12.011   -1.387078   -4.485964    0.177634
   4 C     6.0000    0    12.011   -1.328572    0.006444    1.377799
   5 C     6.0000    0    12.011   -0.663237   -2.538942    1.794824
   6 H     1.0000    0     1.008   -3.691089    2.312382   -1.037649
   7 H     1.0000    0     1.008   -4.868275   -1.125275   -3.949112
   8 H     1.0000    0     1.008   -3.332475   -5.478826   -3.228427
   9 H     1.0000    0     1.008    0.600442   -2.924975    3.369703
  10 H     1.0000    0     1.008   -0.592448   -6.344151    0.453572
  11 Pd   18.0000*   0   106.400    2.361950    1.782371   -0.023055
  12 O     8.0000    0    15.999    5.586578    2.297529   -2.442433
  13 O     8.0000    0    15.999    4.708045   -1.099556   -0.317814
  14 O     8.0000    0    15.999    0.605506    5.095873    0.415078
  15 C     6.0000    0    12.011   -0.201124    5.485762    2.616137
  16 O     8.0000    0    15.999   -0.352717    3.867230    4.300620
  17 H     1.0000    0     1.008   -0.504217    1.837022    2.879678
  18 C     6.0000    0    12.011    6.099469    0.067898   -1.872586
  19 H     1.0000    0     1.008    7.697421   -0.969864   -2.665024
  20 H     1.0000    0     1.008   -1.035551    7.310273    2.924654
* core charge reduced due to ECP

--------------------------------
INTERNAL COORDINATES (ANGSTROEM)
--------------------------------
 C      0   0   0     0.000000000000     0.00000000     0.00000000
 C      1   0   0     1.393301660266     0.00000000     0.00000000
 C      2   1   0     1.387445572338   120.42140597     0.00000000
 C      3   2   1     1.384758718767   118.90534998     3.39769391
 C      1   2   3     1.425075576206   122.43684177     0.78706511
 C      4   3   2     1.393067964028   120.49847338   357.51067028
 H      1   2   3     1.089434104157   119.29980592   178.24654720
 H      2   1   3     1.080170311988   119.72918032   187.47266241
 H      3   2   1     1.079561704073   120.88848961   186.22537004
 H      6   4   3     1.087861330593   120.04956300   182.68723213
 H      4   3   2     1.079370486209   120.29995990   183.69262243
 Pd     5   1   2     2.290564729930   103.40010559   106.09703454
 O     12   5   1     2.150635731708   157.09538455   299.23670301
 O     12   5   1     1.972670654950   104.18120186   245.41720455
 O     12   5   1     1.998045462020    85.74921794    71.02903114
 C     15  12   5     1.257541819344   114.16440660    57.30369550
 O     16  15  12     1.238784283320   125.10094234   347.41481680
 H     17  16  15     1.313785518797    99.06178369   335.31913474
 C     13  12   5     1.247673437843    84.77029966   300.51089640
 H     19  13  12     1.091999130586   123.44951348   176.68281935
 H     16  15  12     1.074150828003   115.32657256   175.88043005

---------------------------
INTERNAL COORDINATES (A.U.)
---------------------------
 C      0   0   0     0.000000000000     0.00000000     0.00000000
 C      1   0   0     2.632958559841     0.00000000     0.00000000
 C      2   1   0     2.621892157440   120.42140597     0.00000000
 C      3   2   1     2.616814740028   118.90534998     3.39769391
 C      1   2   3     2.693002559170   122.43684177     0.78706511
 C      4   3   2     2.632516937951   120.49847338   357.51067028
 H      1   2   3     2.058732097810   119.29980592   178.24654720
 H      2   1   3     2.041226067649   119.72918032   187.47266241
 H      3   2   1     2.040075965366   120.88848961   186.22537004
 H      6   4   3     2.055759986504   120.04956300   182.68723213
 H      4   3   2     2.039714615973   120.29995990   183.69262243
 Pd     5   1   2     4.328540031587   103.40010559   106.09703454
 O     12   5   1     4.064112546754   157.09538455   299.23670301
 O     12   5   1     3.727807290278   104.18120186   245.41720455
 O     12   5   1     3.775758726343    85.74921794    71.02903114
 C     15  12   5     2.376409640514   114.16440660    57.30369550
 O     16  15  12     2.340963034480   125.10094234   347.41481680
 H     17  16  15     2.482694829237    99.06178369   335.31913474
 C     13  12   5     2.357761102092    84.77029966   300.51089640
 H     19  13  12     2.063579295287   123.44951348   176.68281935
 H     16  15  12     2.029850891451   115.32657256   175.88043005

---------------------
BASIS SET INFORMATION
---------------------
There are 4 groups of distinct atoms

 Group   1 Type C   : 8s4p1d contracted to 4s2p1d pattern {5111/31/1}
 Group   2 Type H   : 4s contracted to 2s pattern {31}
 Group   3 Type Pd  : 7s6p5d1f contracted to 5s3p2d1f pattern {31111/411/41/1}
 Group   4 Type O   : 8s4p1d contracted to 4s2p1d pattern {5111/31/1}

Atom   0C    basis set group =>   1
Atom   1C    basis set group =>   1
Atom   2C    basis set group =>   1
Atom   3C    basis set group =>   1
Atom   4C    basis set group =>   1
Atom   5C    basis set group =>   1
Atom   6H    basis set group =>   2
Atom   7H    basis set group =>   2
Atom   8H    basis set group =>   2
Atom   9H    basis set group =>   2
Atom  10H    basis set group =>   2
Atom  11Pd   basis set group =>   3
Atom  12O    basis set group =>   4
Atom  13O    basis set group =>   4
Atom  14O    basis set group =>   4
Atom  15C    basis set group =>   1
Atom  16O    basis set group =>   4
Atom  17H    basis set group =>   2
Atom  18C    basis set group =>   1
Atom  19H    basis set group =>   2
Atom  20H    basis set group =>   2
---------------------------------
AUXILIARY/J BASIS SET INFORMATION
---------------------------------
There are 4 groups of distinct atoms

 Group   1 Type C   : 12s5p4d2f1g contracted to 6s4p3d1f1g pattern {711111/2111/211/2/1}
 Group   2 Type H   : 5s2p1d contracted to 3s1p1d pattern {311/2/1}
 Group   3 Type Pd  : 11s5p5d3f3g contracted to 8s5p5d2f3g pattern {41111111/11111/11111/21/111}
 Group   4 Type O   : 12s5p4d2f1g contracted to 6s4p3d1f1g pattern {711111/2111/211/2/1}

Atom   0C    basis set group =>   1
Atom   1C    basis set group =>   1
Atom   2C    basis set group =>   1
Atom   3C    basis set group =>   1
Atom   4C    basis set group =>   1
Atom   5C    basis set group =>   1
Atom   6H    basis set group =>   2
Atom   7H    basis set group =>   2
Atom   8H    basis set group =>   2
Atom   9H    basis set group =>   2
Atom  10H    basis set group =>   2
Atom  11Pd   basis set group =>   3
Atom  12O    basis set group =>   4
Atom  13O    basis set group =>   4
Atom  14O    basis set group =>   4
Atom  15C    basis set group =>   1
Atom  16O    basis set group =>   4
Atom  17H    basis set group =>   2
Atom  18C    basis set group =>   1
Atom  19H    basis set group =>   2
Atom  20H    basis set group =>   2
-------------------------
ECP PARAMETER INFORMATION
-------------------------

 Group 1, Type Pd ECP Def2-ECP (replacing 28 core electrons, lmax=3)

Atom  11Pd   ECP group =>   1



           ************************************************************
           *        Program running with 8 parallel MPI-processes     *
           *              working on a common directory               *
           ************************************************************
------------------------------------------------------------------------------
                           ORCA GTO INTEGRAL CALCULATION
                           -- RI-GTO INTEGRALS CHOSEN --
------------------------------------------------------------------------------
------------------------------------------------------------------------------
                   ___                                                        
                  /   \      - P O W E R E D   B Y -                         
                 /     \                                                     
                 |  |  |   _    _      __       _____    __    __             
                 |  |  |  | |  | |    /  \     |  _  \  |  |  /  |          
                  \  \/   | |  | |   /    \    | | | |  |  | /  /          
                 / \  \   | |__| |  /  /\  \   | |_| |  |  |/  /          
                |  |  |   |  __  | /  /__\  \  |    /   |      \           
                |  |  |   | |  | | |   __   |  |    \   |  |\   \          
                \     /   | |  | | |  |  |  |  | |\  \  |  | \   \       
                 \___/    |_|  |_| |__|  |__|  |_| \__\ |__|  \__/        
                                                                              
                      - O R C A' S   B I G   F R I E N D -                    
                                      &                                       
                       - I N T E G R A L  F E E D E R -                       
                                                                              
 v1 FN, 2020, v2 2021                                                         
------------------------------------------------------------------------------


Reading SHARK input file reaction-0-cineb5_optts_Compound_1.SHARKINP.tmp ... ok
----------------------
SHARK INTEGRAL PACKAGE
----------------------

Number of atoms                             ...     21
Number of basis functions                   ...    227
Number of shells                            ...    111
Maximum angular momentum                    ...      3
Integral batch strategy                     ... SHARK/LIBINT Hybrid
RI-J (if used) integral strategy            ... SPLIT-RIJ (Revised 2003 algorithm where possible)
Printlevel                                  ...      1
Contraction scheme used                     ... SEGMENTED contraction
Coulomb Range Separation                    ... NOT USED
Exchange Range Separation                   ... NOT USED
Finite Nucleus Model                        ... NOT USED
Auxiliary Coulomb fitting basis             ... AVAILABLE
   # of basis functions in Aux-J            ...    765
   # of shells in Aux-J                     ...    243
   Maximum angular momentum in Aux-J        ...      4
Auxiliary J/K fitting basis                 ... NOT available
Auxiliary Correlation fitting basis         ... NOT available
Auxiliary 'external' fitting basis          ... NOT available
Integral threshold                          ...     2.500000e-11
Primitive cut-off                           ...     2.500000e-12
Primitive pair pre-selection threshold      ...     2.500000e-12

Calculating pre-screening integrals         ... done (  0.0 sec) Dimension = 111
Organizing shell pair data                  ... done (  0.0 sec)
Shell pair information
Total number of shell pairs                 ...      6216
Shell pairs after pre-screening             ...      5007
Total number of primitive shell pairs       ...     21723
Primitive shell pairs kept                  ...     11913
          la=0 lb=0:   1744 shell pairs
          la=1 lb=0:   1628 shell pairs
          la=1 lb=1:    366 shell pairs
          la=2 lb=0:    735 shell pairs
          la=2 lb=1:    347 shell pairs
          la=2 lb=2:     89 shell pairs
          la=3 lb=0:     56 shell pairs
          la=3 lb=1:     27 shell pairs
          la=3 lb=2:     14 shell pairs
          la=3 lb=3:      1 shell pairs

Calculating one electron integrals          ... done (  0.0 sec)
Calculating ECP integrals                   ... done (  0.2 sec)
Calculating RI/J V-Matrix + Cholesky decomp.... done (  0.0 sec)
Calculating Nuclear repulsion               ... done (  0.0 sec) ENN=    943.481654584156 Eh

SHARK setup successfully completed in   0.4 seconds

Maximum memory used throughout the entire GTOINT-calculation: 17.7 MB


           ************************************************************
           *        Program running with 8 parallel MPI-processes     *
           *              working on a common directory               *
           ************************************************************
-------------------------------------------------------------------------------
                                 ORCA SCF
-------------------------------------------------------------------------------

------------
SCF SETTINGS
------------
Hamiltonian:
 Density Functional     Method          .... DFT(GTOs)
 Exchange Functional    Exchange        .... PBE
   PBE kappa parameter   XKappa         ....  1.024500
   PBE mue parameter    XMuePBE         ....  0.123457
 Correlation Functional Correlation     .... PBE
   PBE beta parameter  CBetaPBE         ....  0.030000
 LDA part of GGA corr.  LDAOpt          .... PW91-LDA
 Gradients option       PostSCFGGA      .... off
 Hybrid DFT is turned on
   Fraction HF Exchange ScalHFX         ....  0.420000
   Scaling of DF-GGA-X  ScalDFX         ....  0.580000
   Scaling of DF-GGA-C  ScalDFC         ....  1.000000
   Scaling of DF-LDA-C  ScalLDAC        ....  1.000000
   Perturbative correction              ....  0.000000
   Density functional embedding theory  .... OFF
 RI-approximation to the Coulomb term is turned on
   Number of AuxJ basis functions       .... 765
   RIJ-ON(X) (HFX calculated with O(N)) .... on
   Number of AuxJ basis functions       .... 765
   RIJ-COSX (HFX calculated with COS-X)).... on


General Settings:
 Integral files         IntName         .... reaction-0-cineb5_optts_Compound_1
 Hartree-Fock type      HFTyp           .... RHF
 Total Charge           Charge          ....    0
 Multiplicity           Mult            ....    1
 Number of Electrons    NEL             ....  106
 Basis Dimension        Dim             ....  227
 Nuclear Repulsion      ENuc            ....    943.4816545842 Eh

Convergence Acceleration:
 DIIS                   CNVDIIS         .... on
   Start iteration      DIISMaxIt       ....    12
   Startup error        DIISStart       ....  0.200000
   # of expansion vecs  DIISMaxEq       ....     5
   Bias factor          DIISBfac        ....   1.050
   Max. coefficient     DIISMaxC        ....  10.000
 Trust-Rad. Augm. Hess. CNVTRAH         .... auto
   Auto Start mean grad. ratio tolernc. ....  1.125000
   Auto Start start iteration           ....    20
   Auto Start num. interpolation iter.  ....    10
   Max. Number of Micro iterations      ....    16
   Max. Number of Macro iterations      .... Maxiter - #DIIS iter
   Number of Davidson start vectors     ....     2
   Converg. threshold I  (grad. norm)   ....   1.000e-05
   Converg. threshold II (energy diff.) ....   1.000e-08
   Grad. Scal. Fac. for Micro threshold ....   0.100
   Minimum threshold for Micro iter.    ....   0.010
   NR start threshold (gradient norm)   ....   0.001
   Initial trust radius                 ....   0.400
   Minimum AH scaling param. (alpha)    ....   1.000
   Maximum AH scaling param. (alpha)    .... 1000.000
   Orbital update algorithm             .... Taylor
   White noise on init. David. guess    .... on
   Maximum white noise                  ....   0.010
   Quad. conv. algorithm                .... NR
   COSX micro iterations for RIJONX calc.... off
 SOSCF                  CNVSOSCF        .... off
 Level Shifting         CNVShift        .... on
   Level shift para.    LevelShift      ....    0.2500
   Turn off err/grad.   ShiftErr        ....    0.0010
 Zerner damping         CNVZerner       .... off
 Static damping         CNVDamp         .... on
   Fraction old density DampFac         ....    0.7000
   Max. Damping (<1)    DampMax         ....    0.9800
   Min. Damping (>=0)   DampMin         ....    0.0000
   Turn off err/grad.   DampErr         ....    0.1000
 Fernandez-Rico         CNVRico         .... off

SCF Procedure:
 Maximum # iterations   MaxIter         ....   125
 SCF integral mode      SCFMode         .... Direct
   Integral package                     .... SHARK and LIBINT hybrid scheme
 Reset frequency        DirectResetFreq ....    20
 Integral Threshold     Thresh          ....  2.500e-11 Eh
 Primitive CutOff       TCut            ....  2.500e-12 Eh

Convergence Tolerance:
 Convergence Check Mode ConvCheckMode   .... Total+1el-Energy
 Convergence forced     ConvForced      .... 0
 Energy Change          TolE            ....  1.000e-08 Eh
 1-El. energy change                    ....  1.000e-05 Eh
 DIIS Error             TolErr          ....  5.000e-07


Diagonalization of the overlap matrix:
Smallest eigenvalue                        ... 4.720e-04
Time for diagonalization                   ...    0.009 sec
Threshold for overlap eigenvalues          ... 1.000e-08
Number of eigenvalues below threshold      ... 0
Time for construction of square roots      ...    0.004 sec
Total time needed                          ...    0.013 sec

--------------------------------
INITIAL GUESS: MINIMAL BASIS EHT
--------------------------------
The minimal basis has 81 functions
EHT matrix was diagonalized
Basis set overlap was calculated now projecting the orbitals
Using GuessMode=FMatrix for the initial guess
C*T matrix was formed
Effective Fockian was calculated
Effective Fockian was diagonalized
Initial density was built
                      ------------------
                      INITIAL GUESS DONE
                      ------------------
-------------------
DFT GRID GENERATION
-------------------

General Integration Accuracy     IntAcc      ... 4.159
Radial Grid Type                 RadialGrid  ... OptM3 with GC (2021)
Angular Grid (max. ang.)         AngularGrid ... 3 (Lebedev-194)
Angular grid pruning method      GridPruning ... 4 (adaptive)
Weight generation scheme         WeightScheme... Becke
Basis function cutoff            BFCut       ... 1.0000e-11
Integration weight cutoff        WCut        ... 1.0000e-14
Angular grids for H and He will be reduced by one unit
Partially contracted basis set               ... off
Rotationally invariant grid construction     ... off

Total number of grid points                  ...    56148
Total number of batches                      ...      887
Average number of points per batch           ...       63
Average number of grid points per atom       ...     2674
Time for grid setup =    0.178 sec

--------------------
COSX GRID GENERATION
--------------------

GRIDX 1
-------
General Integration Accuracy     IntAcc      ... 3.816
Radial Grid Type                 RadialGrid  ... OptM3 with GC (2021)
Angular Grid (max. ang.)         AngularGrid ... 1 (Lebedev-50)
Angular grid pruning method      GridPruning ... 4 (adaptive)
Weight generation scheme         WeightScheme... Becke
Basis function cutoff            BFCut       ... 1.0000e-11
Integration weight cutoff        WCut        ... 1.0000e-14
Angular grids for H and He will be reduced by one unit
Partially contracted basis set               ... on
Rotationally invariant grid construction     ... off

Total number of grid points                  ...    13534
Total number of batches                      ...      218
Average number of points per batch           ...       62
Average number of grid points per atom       ...      644
UseSFitting                                  ... on

GRIDX 2
-------
General Integration Accuracy     IntAcc      ... 4.020
Radial Grid Type                 RadialGrid  ... OptM3 with GC (2021)
Angular Grid (max. ang.)         AngularGrid ... 2 (Lebedev-110)
Angular grid pruning method      GridPruning ... 4 (adaptive)
Weight generation scheme         WeightScheme... Becke
Basis function cutoff            BFCut       ... 1.0000e-11
Integration weight cutoff        WCut        ... 1.0000e-14
Angular grids for H and He will be reduced by one unit
Partially contracted basis set               ... on
Rotationally invariant grid construction     ... off

Total number of grid points                  ...    30233
Total number of batches                      ...      482
Average number of points per batch           ...       62
Average number of grid points per atom       ...     1440
UseSFitting                                  ... on

GRIDX 3
-------
General Integration Accuracy     IntAcc      ... 4.338
Radial Grid Type                 RadialGrid  ... OptM3 with GC (2021)
Angular Grid (max. ang.)         AngularGrid ... 3 (Lebedev-194)
Angular grid pruning method      GridPruning ... 4 (adaptive)
Weight generation scheme         WeightScheme... Becke
Basis function cutoff            BFCut       ... 1.0000e-11
Integration weight cutoff        WCut        ... 1.0000e-14
Angular grids for H and He will be reduced by one unit
Partially contracted basis set               ... on
Rotationally invariant grid construction     ... off

Total number of grid points                  ...    65729
Total number of batches                      ...     1037
Average number of points per batch           ...       63
Average number of grid points per atom       ...     3130
UseSFitting                                  ... on

Time for X-Grid setup             =    0.403 sec

--------------
SCF ITERATIONS
--------------
ITER       Energy         Delta-E        Max-DP      RMS-DP      [F,P]     Damp
               ***  Starting incremental Fock matrix formation  ***
  0   -719.1507154126   0.000000000000 4.86591981  0.04041336  5.0550431 0.7000
  1   -713.0542896277   6.096425784916 3.66323002  0.06124336  3.9048262 0.7000
  2   -713.3900185916  -0.335728963921 1.61466092  0.02660230  2.6008558 0.7000
  3   -717.4133030051  -4.023284413493 3.30685898  0.03263516  1.9203530 0.7000
  4   -720.3526243746  -2.939321369496 1.80686792  0.02104992  1.2534196 0.7000
  5   -724.9491739265  -4.596549551971 1.20591222  0.01480881  0.9671237 0.7000
  6   -728.4930441163  -3.543870189723 0.82689291  0.01041186  0.6969970 0.7000
  7   -731.0097801489  -2.516736032622 0.58845627  0.00737031  0.4916901 0.7000
  8   -732.8013145235  -1.791534374589 0.42146820  0.00521945  0.3449068 0.7000
  9   -734.0770921873  -1.275777663827 0.29971423  0.00369159  0.2427974 0.7000
                               ***Turning on DIIS***
 10   -734.9820366138  -0.904944426530 0.21145439  0.00260672  0.1716307 0.7000
 11   -735.6215323133  -0.639495699494 0.14898037  0.00185018  0.1214885 0.7000
 12   -736.0723357783  -0.450803465015 0.34699100  0.00435621  0.0850102 0.0000
 13   -737.1351307378  -1.062794959512 0.00843634  0.00014314  0.0035944 0.0000
 14   -737.1355024330  -0.000371695136 0.00629312  0.00010368  0.0030233 0.0000
 15   -737.1356759399  -0.000173506901 0.00614621  0.00008116  0.0024118 0.0000
 16   -737.1357755753  -0.000099635458 0.00501384  0.00006300  0.0018442 0.0000
 17   -737.1358285664  -0.000052991044 0.00411147  0.00004758  0.0013140 0.0000
 18   -737.1358556081  -0.000027041704 0.00618326  0.00007154  0.0008916 0.0000
               *** Restarting incremental Fock matrix formation ***
                                   *** Resetting DIIS ***
 19   -737.1359435245  -0.000087916405 0.00235758  0.00004908  0.0002847 0.0000
 20   -737.1359471898  -0.000003665265 0.00041213  0.00000887  0.0004512 0.0000
 21   -737.1359478520  -0.000000662252 0.00046251  0.00000632  0.0002943 0.0000
 22   -737.1359483672  -0.000000515181 0.00030771  0.00000393  0.0000651 0.0000
 23   -737.1359484931  -0.000000125911 0.00024075  0.00000303  0.0000420 0.0000
 24   -737.1359485506  -0.000000057528 0.00015846  0.00000210  0.0000234 0.0000
 25   -737.1359485687  -0.000000018025 0.00004519  0.00000069  0.0000126 0.0000
 26   -737.1359485745  -0.000000005799 0.00002154  0.00000031  0.0000081 0.0000
 27   -737.1359485782  -0.000000003721 0.00001242  0.00000013  0.0000035 0.0000
                 **** Energy Check signals convergence ****

               *****************************************************
               *                     SUCCESS                       *
               *           SCF CONVERGED AFTER  28 CYCLES          *
               *****************************************************

Old exchange energy                            =    -37.385412573 Eh
New exchange energy                            =    -37.385450713 Eh
Exchange energy change after final integration =     -0.000038140 Eh
Total energy after final integration           =   -737.135986719 Eh
Final COS-X integration done in                =     2.556 sec

----------------
TOTAL SCF ENERGY
----------------

Total Energy       :         -737.13598672 Eh          -20058.48995 eV

Components:
Nuclear Repulsion  :          943.48165458 Eh           25673.44103 eV
Electronic Energy  :        -1680.61764130 Eh          -45731.93099 eV
One Electron Energy:        -2933.39195220 Eh          -79821.65307 eV
Two Electron Energy:         1252.77431089 Eh           34089.72209 eV
Max COSX asymmetry :            0.00002865 Eh               0.00078 eV

Virial components:
Potential Energy   :        -1390.12432697 Eh          -37827.20603 eV
Kinetic Energy     :          652.98834025 Eh           17768.71608 eV
Virial Ratio       :            2.12886547


DFT components:
N(Alpha)           :       53.000121394215 electrons
N(Beta)            :       53.000121394215 electrons
N(Total)           :      106.000242788430 electrons
E(X)               :      -49.970396453741 Eh       
E(C)               :       -4.858955644386 Eh       
E(XC)              :      -54.829352098127 Eh       
DFET-embed. en.    :        0.000000000000 Eh       

---------------
SCF CONVERGENCE
---------------

  Last Energy change         ...   -1.1880e-09  Tolerance :   1.0000e-08
  Last MAX-Density change    ...    0.0000e+00  Tolerance :   1.0000e-07
  Last RMS-Density change    ...    0.0000e+00  Tolerance :   5.0000e-09
  Last DIIS Error            ...    2.5482e-06  Tolerance :   5.0000e-07

             **** THE GBW FILE WAS UPDATED (reaction-0-cineb5_optts_Compound_1.gbw) ****
             **** DENSITY reaction-0-cineb5_optts_Compound_1.scfp WAS UPDATED ****
             **** ENERGY FILE WAS UPDATED (reaction-0-cineb5_optts_Compound_1.en.tmp) ****
             **** THE GBW FILE WAS UPDATED (reaction-0-cineb5_optts_Compound_1.gbw) ****
             **** DENSITY reaction-0-cineb5_optts_Compound_1.scfp WAS UPDATED ****
----------------
ORBITAL ENERGIES
----------------

  NO   OCC          E(Eh)            E(eV) 
   0   2.0000     -19.536411      -531.6128 
   1   2.0000     -19.532527      -531.5071 
   2   2.0000     -19.530962      -531.4645 
   3   2.0000     -19.504805      -530.7527 
   4   2.0000     -10.594185      -288.2824 
   5   2.0000     -10.581948      -287.9494 
   6   2.0000     -10.470042      -284.9043 
   7   2.0000     -10.466802      -284.8162 
   8   2.0000     -10.465577      -284.7828 
   9   2.0000     -10.459955      -284.6298 
  10   2.0000     -10.459048      -284.6052 
  11   2.0000     -10.457715      -284.5689 
  12   2.0000      -3.693244      -100.4983 
  13   2.0000      -2.346731       -63.8578 
  14   2.0000      -2.332836       -63.4797 
  15   2.0000      -2.303704       -62.6870 
  16   2.0000      -1.238113       -33.6908 
  17   2.0000      -1.225578       -33.3497 
  18   2.0000      -1.125804       -30.6347 
  19   2.0000      -1.122644       -30.5487 
  20   2.0000      -0.964812       -26.2539 
  21   2.0000      -0.848303       -23.0835 
  22   2.0000      -0.845810       -23.0156 
  23   2.0000      -0.716067       -19.4852 
  24   2.0000      -0.701174       -19.0799 
  25   2.0000      -0.689408       -18.7598 
  26   2.0000      -0.683401       -18.5963 
  27   2.0000      -0.611889       -16.6504 
  28   2.0000      -0.597964       -16.2714 
  29   2.0000      -0.588716       -16.0198 
  30   2.0000      -0.575118       -15.6498 
  31   2.0000      -0.562665       -15.3109 
  32   2.0000      -0.539959       -14.6930 
  33   2.0000      -0.535587       -14.5741 
  34   2.0000      -0.523900       -14.2560 
  35   2.0000      -0.518029       -14.0963 
  36   2.0000      -0.487510       -13.2658 
  37   2.0000      -0.483358       -13.1528 
  38   2.0000      -0.448326       -12.1996 
  39   2.0000      -0.445738       -12.1292 
  40   2.0000      -0.432042       -11.7565 
  41   2.0000      -0.420273       -11.4362 
  42   2.0000      -0.407770       -11.0960 
  43   2.0000      -0.403702       -10.9853 
  44   2.0000      -0.394889       -10.7455 
  45   2.0000      -0.384205       -10.4548 
  46   2.0000      -0.370787       -10.0896 
  47   2.0000      -0.367883       -10.0106 
  48   2.0000      -0.344333        -9.3698 
  49   2.0000      -0.339534        -9.2392 
  50   2.0000      -0.317822        -8.6484 
  51   2.0000      -0.301329        -8.1996 
  52   2.0000      -0.294514        -8.0141 
  53   0.0000      -0.103726        -2.8225 
  54   0.0000       0.004505         0.1226 
  55   0.0000       0.007367         0.2005 
  56   0.0000       0.019865         0.5406 
  57   0.0000       0.034547         0.9401 
  58   0.0000       0.053608         1.4588 
  59   0.0000       0.061041         1.6610 
  60   0.0000       0.088023         2.3952 
  61   0.0000       0.098066         2.6685 
  62   0.0000       0.149707         4.0737 
  63   0.0000       0.168038         4.5726 
  64   0.0000       0.182095         4.9551 
  65   0.0000       0.196145         5.3374 
  66   0.0000       0.200921         5.4673 
  67   0.0000       0.206872         5.6293 
  68   0.0000       0.221607         6.0302 
  69   0.0000       0.229360         6.2412 
  70   0.0000       0.248955         6.7744 
  71   0.0000       0.261850         7.1253 
  72   0.0000       0.299109         8.1392 
  73   0.0000       0.305882         8.3235 
  74   0.0000       0.315935         8.5970 
  75   0.0000       0.324095         8.8191 
  76   0.0000       0.335026         9.1165 
  77   0.0000       0.344676         9.3791 
  78   0.0000       0.375634        10.2215 
  79   0.0000       0.392518        10.6810 
  80   0.0000       0.415148        11.2967 
  81   0.0000       0.429776        11.6948 
  82   0.0000       0.447714        12.1829 
  83   0.0000       0.453205        12.3323 
  84   0.0000       0.478630        13.0242 
  85   0.0000       0.493160        13.4196 
  86   0.0000       0.517195        14.0736 
  87   0.0000       0.527083        14.3426 
  88   0.0000       0.546768        14.8783 
  89   0.0000       0.564522        15.3614 
  90   0.0000       0.578685        15.7468 
  91   0.0000       0.580595        15.7988 
  92   0.0000       0.596039        16.2190 
  93   0.0000       0.598711        16.2918 
  94   0.0000       0.611354        16.6358 
  95   0.0000       0.622457        16.9379 
  96   0.0000       0.632347        17.2070 
  97   0.0000       0.636189        17.3116 
  98   0.0000       0.641579        17.4583 
  99   0.0000       0.662950        18.0398 
 100   0.0000       0.671321        18.2676 
 101   0.0000       0.677338        18.4313 
 102   0.0000       0.706678        19.2297 
 103   0.0000       0.727780        19.8039 
 104   0.0000       0.748673        20.3724 
 105   0.0000       0.761267        20.7151 
 106   0.0000       0.771589        20.9960 
 107   0.0000       0.807932        21.9850 
 108   0.0000       0.828449        22.5432 
 109   0.0000       0.838900        22.8276 
 110   0.0000       0.867417        23.6036 
 111   0.0000       0.903096        24.5745 
 112   0.0000       0.930467        25.3193 
 113   0.0000       0.934302        25.4236 
 114   0.0000       0.947322        25.7779 
 115   0.0000       0.953105        25.9353 
 116   0.0000       0.958709        26.0878 
 117   0.0000       0.964551        26.2468 
 118   0.0000       0.995051        27.0767 
 119   0.0000       1.006453        27.3870 
 120   0.0000       1.026951        27.9448 
 121   0.0000       1.039168        28.2772 
 122   0.0000       1.051373        28.6093 
 123   0.0000       1.057356        28.7721 
 124   0.0000       1.079004        29.3612 
 125   0.0000       1.096084        29.8260 
 126   0.0000       1.109849        30.2005 
 127   0.0000       1.136509        30.9260 
 128   0.0000       1.147406        31.2225 
 129   0.0000       1.159979        31.5646 
 130   0.0000       1.177319        32.0365 
 131   0.0000       1.198489        32.6125 
 132   0.0000       1.219355        33.1803 
 133   0.0000       1.236021        33.6338 
 134   0.0000       1.263558        34.3832 
 135   0.0000       1.272833        34.6355 
 136   0.0000       1.293876        35.2082 
 137   0.0000       1.319977        35.9184 
 138   0.0000       1.346065        36.6283 
 139   0.0000       1.373853        37.3844 
 140   0.0000       1.427285        38.8384 
 141   0.0000       1.459871        39.7251 
 142   0.0000       1.474297        40.1177 
 143   0.0000       1.504913        40.9508 
 144   0.0000       1.509643        41.0795 
 145   0.0000       1.532877        41.7117 
 146   0.0000       1.547123        42.0993 
 147   0.0000       1.567328        42.6492 
 148   0.0000       1.571628        42.7662 
 149   0.0000       1.580905        43.0186 
 150   0.0000       1.618918        44.0530 
 151   0.0000       1.690882        46.0112 
 152   0.0000       1.778385        48.3923 
 153   0.0000       1.792742        48.7830 
 154   0.0000       1.798395        48.9368 
 155   0.0000       1.815271        49.3960 
 156   0.0000       1.821287        49.5597 
 157   0.0000       1.838908        50.0392 
 158   0.0000       1.848834        50.3093 
 159   0.0000       1.861539        50.6550 
 160   0.0000       1.902516        51.7701 
 161   0.0000       1.909186        51.9516 
 162   0.0000       1.937137        52.7122 
 163   0.0000       1.954357        53.1808 
 164   0.0000       1.971101        53.6364 
 165   0.0000       1.984824        54.0098 
 166   0.0000       2.002137        54.4809 
 167   0.0000       2.017286        54.8932 
 168   0.0000       2.047854        55.7249 
 169   0.0000       2.060789        56.0769 
 170   0.0000       2.075604        56.4801 
 171   0.0000       2.119083        57.6632 
 172   0.0000       2.138841        58.2008 
 173   0.0000       2.169700        59.0405 
 174   0.0000       2.178232        59.2727 
 175   0.0000       2.186941        59.5097 
 176   0.0000       2.190108        59.5959 
 177   0.0000       2.223036        60.4919 
 178   0.0000       2.250680        61.2441 
 179   0.0000       2.283071        62.1255 
 180   0.0000       2.317379        63.0591 
 181   0.0000       2.345641        63.8281 
 182   0.0000       2.357535        64.1518 
 183   0.0000       2.373184        64.5776 
 184   0.0000       2.417596        65.7861 
 185   0.0000       2.423314        65.9417 
 186   0.0000       2.437350        66.3237 
 187   0.0000       2.445580        66.5476 
 188   0.0000       2.448657        66.6313 
 189   0.0000       2.487510        67.6886 
 190   0.0000       2.523799        68.6761 
 191   0.0000       2.550042        69.3902 
 192   0.0000       2.565758        69.8178 
 193   0.0000       2.587775        70.4170 
 194   0.0000       2.612704        71.0953 
 195   0.0000       2.635125        71.7054 
 196   0.0000       2.678057        72.8736 
 197   0.0000       2.689713        73.1908 
 198   0.0000       2.718332        73.9696 
 199   0.0000       2.721404        74.0532 
 200   0.0000       2.735563        74.4385 
 201   0.0000       2.744943        74.6937 
 202   0.0000       2.766447        75.2788 
 203   0.0000       2.810524        76.4783 
 204   0.0000       2.822915        76.8154 
 205   0.0000       2.872711        78.1704 
 206   0.0000       2.927814        79.6699 
 207   0.0000       2.965094        80.6843 
 208   0.0000       2.983732        81.1915 
 209   0.0000       2.990080        81.3642 
 210   0.0000       3.074059        83.6494 
 211   0.0000       3.119694        84.8912 
 212   0.0000       3.127944        85.1157 
 213   0.0000       3.409738        92.7837 
 214   0.0000      13.295678       361.7938 
 215   0.0000      13.641741       371.2106 
 216   0.0000      13.769788       374.6950 
 217   0.0000      13.874104       377.5336 
 218   0.0000      13.917157       378.7051 
 219   0.0000      14.122727       384.2989 
 220   0.0000      14.162047       385.3689 
 221   0.0000      14.515362       394.9831 
 222   0.0000      25.552181       695.3102 
 223   0.0000      25.637693       697.6371 
 224   0.0000      25.688693       699.0249 
 225   0.0000      25.799611       702.0431 
 226   0.0000      51.550063      1402.7485 

                    ********************************
                    * MULLIKEN POPULATION ANALYSIS *
                    ********************************

-----------------------
MULLIKEN ATOMIC CHARGES
-----------------------
   0 C :   -0.199962
   1 C :   -0.209445
   2 C :   -0.211401
   3 C :   -0.210940
   4 C :   -0.461882
   5 C :   -0.172753
   6 H :    0.235706
   7 H :    0.227231
   8 H :    0.232999
   9 H :    0.243362
  10 H :    0.227534
  11 Pd:    0.513745
  12 O :   -0.439501
  13 O :   -0.477087
  14 O :   -0.471414
  15 C :    0.359220
  16 O :   -0.472483
  17 H :    0.451102
  18 C :    0.415023
  19 H :    0.208609
  20 H :    0.212337
Sum of atomic charges:   -0.0000000

--------------------------------
MULLIKEN REDUCED ORBITAL CHARGES
--------------------------------
  0 C s       :     3.285009  s :     3.285009
      pz      :     0.916322  p :     2.874593
      px      :     0.923982
      py      :     1.034289
      dz2     :     0.009232  d :     0.040360
      dxz     :     0.005899
      dyz     :     0.008818
      dx2y2   :     0.008392
      dxy     :     0.008020
  1 C s       :     3.244085  s :     3.244085
      pz      :     1.012721  p :     2.926009
      px      :     1.014947
      py      :     0.898341
      dz2     :     0.007421  d :     0.039351
      dxz     :     0.006519
      dyz     :     0.009827
      dx2y2   :     0.007548
      dxy     :     0.008035
  2 C s       :     3.259458  s :     3.259458
      pz      :     0.984302  p :     2.911171
      px      :     0.940205
      py      :     0.986664
      dz2     :     0.007115  d :     0.040772
      dxz     :     0.005357
      dyz     :     0.013050
      dx2y2   :     0.008205
      dxy     :     0.007046
  3 C s       :     3.246076  s :     3.246076
      pz      :     0.923632  p :     2.925513
      px      :     0.975380
      py      :     1.026502
      dz2     :     0.009445  d :     0.039351
      dxz     :     0.006067
      dyz     :     0.008739
      dx2y2   :     0.007367
      dxy     :     0.007733
  4 C s       :     3.359961  s :     3.359961
      pz      :     1.048013  p :     3.064919
      px      :     0.953481
      py      :     1.063426
      dz2     :     0.007133  d :     0.037002
      dxz     :     0.006533
      dyz     :     0.007199
      dx2y2   :     0.008426
      dxy     :     0.007711
  5 C s       :     3.268151  s :     3.268151
      pz      :     0.995823  p :     2.863718
      px      :     0.987825
      py      :     0.880070
      dz2     :     0.006561  d :     0.040884
      dxz     :     0.007378
      dyz     :     0.010802
      dx2y2   :     0.007955
      dxy     :     0.008188
  6 H s       :     0.764294  s :     0.764294
  7 H s       :     0.772769  s :     0.772769
  8 H s       :     0.767001  s :     0.767001
  9 H s       :     0.756638  s :     0.756638
 10 H s       :     0.772466  s :     0.772466
 11 Pds       :     2.476995  s :     2.476995
      pz      :     2.068416  p :     6.300319
      px      :     2.112452
      py      :     2.119452
      dz2     :     1.843630  d :     8.704108
      dxz     :     1.914393
      dyz     :     1.943809
      dx2y2   :     1.716757
      dxy     :     1.285517
      f0      :     0.000360  f :     0.004833
      f+1     :     0.000536
      f-1     :     0.000565
      f+2     :     0.000481
      f-2     :     0.000495
      f+3     :     0.001590
      f-3     :     0.000806
 12 O s       :     3.816365  s :     3.816365
      pz      :     1.620314  p :     4.592731
      px      :     1.592067
      py      :     1.380350
      dz2     :     0.004187  d :     0.030406
      dxz     :     0.002510
      dyz     :     0.008218
      dx2y2   :     0.008753
      dxy     :     0.006737
 13 O s       :     3.818625  s :     3.818625
      pz      :     1.512301  p :     4.626117
      px      :     1.476634
      py      :     1.637181
      dz2     :     0.007437  d :     0.032345
      dxz     :     0.005195
      dyz     :     0.007009
      dx2y2   :     0.004723
      dxy     :     0.007980
 14 O s       :     3.797681  s :     3.797681
      pz      :     1.422539  p :     4.644544
      px      :     1.577777
      py      :     1.644227
      dz2     :     0.010341  d :     0.029189
      dxz     :     0.008037
      dyz     :     0.005768
      dx2y2   :     0.002758
      dxy     :     0.002285
 15 C s       :     3.044160  s :     3.044160
      pz      :     0.793610  p :     2.457002
      px      :     0.749287
      py      :     0.914105
      dz2     :     0.044239  d :     0.139618
      dxz     :     0.029134
      dyz     :     0.037867
      dx2y2   :     0.013286
      dxy     :     0.015093
 16 O s       :     3.800195  s :     3.800195
      pz      :     1.576412  p :     4.642967
      px      :     1.611202
      py      :     1.455353
      dz2     :     0.007484  d :     0.029322
      dxz     :     0.006110
      dyz     :     0.009913
      dx2y2   :     0.002505
      dxy     :     0.003309
 17 H s       :     0.548898  s :     0.548898
 18 C s       :     3.053923  s :     3.053923
      pz      :     0.756613  p :     2.393580
      px      :     0.830874
      py      :     0.806093
      dz2     :     0.021943  d :     0.137474
      dxz     :     0.015155
      dyz     :     0.033213
      dx2y2   :     0.029768
      dxy     :     0.037395
 19 H s       :     0.791391  s :     0.791391
 20 H s       :     0.787663  s :     0.787663


                     *******************************
                     * LOEWDIN POPULATION ANALYSIS *
                     *******************************

----------------------
LOEWDIN ATOMIC CHARGES
----------------------
   0 C :   -0.076366
   1 C :   -0.137931
   2 C :   -0.101563
   3 C :   -0.134309
   4 C :   -0.182065
   5 C :   -0.072937
   6 H :    0.151901
   7 H :    0.142023
   8 H :    0.142035
   9 H :    0.153499
  10 H :    0.142170
  11 Pd:   -0.178087
  12 O :   -0.148110
  13 O :   -0.139768
  14 O :   -0.136578
  15 C :    0.126326
  16 O :   -0.278783
  17 H :    0.315878
  18 C :    0.167227
  19 H :    0.123238
  20 H :    0.122200

-------------------------------
LOEWDIN REDUCED ORBITAL CHARGES
-------------------------------
  0 C s       :     2.894066  s :     2.894066
      pz      :     1.030844  p :     3.092171
      px      :     0.980758
      py      :     1.080569
      dz2     :     0.020064  d :     0.090129
      dxz     :     0.014539
      dyz     :     0.021679
      dx2y2   :     0.017392
      dxy     :     0.016455
  1 C s       :     2.888902  s :     2.888902
      pz      :     1.052651  p :     3.159122
      px      :     1.023047
      py      :     1.083424
      dz2     :     0.016013  d :     0.089907
      dxz     :     0.011490
      dyz     :     0.024545
      dx2y2   :     0.019092
      dxy     :     0.018768
  2 C s       :     2.892593  s :     2.892593
      pz      :     1.046743  p :     3.117013
      px      :     0.988725
      py      :     1.081545
      dz2     :     0.016343  d :     0.091957
      dxz     :     0.012288
      dyz     :     0.028695
      dx2y2   :     0.018236
      dxy     :     0.016395
  3 C s       :     2.888343  s :     2.888343
      pz      :     1.056894  p :     3.155941
      px      :     1.021168
      py      :     1.077879
      dz2     :     0.021657  d :     0.090025
      dxz     :     0.015039
      dyz     :     0.021948
      dx2y2   :     0.015451
      dxy     :     0.015930
  4 C s       :     2.920442  s :     2.920442
      pz      :     1.078370  p :     3.178512
      px      :     0.993619
      py      :     1.106524
      dz2     :     0.014622  d :     0.083110
      dxz     :     0.014802
      dyz     :     0.017289
      dx2y2   :     0.019477
      dxy     :     0.016921
  5 C s       :     2.892185  s :     2.892185
      pz      :     1.027668  p :     3.088611
      px      :     0.971406
      py      :     1.089537
      dz2     :     0.014442  d :     0.092142
      dxz     :     0.012301
      dyz     :     0.026269
      dx2y2   :     0.021048
      dxy     :     0.018080
  6 H s       :     0.848099  s :     0.848099
  7 H s       :     0.857977  s :     0.857977
  8 H s       :     0.857965  s :     0.857965
  9 H s       :     0.846501  s :     0.846501
 10 H s       :     0.857830  s :     0.857830
 11 Pds       :     2.459875  s :     2.459875
      pz      :     2.123578  p :     6.634465
      px      :     2.256331
      py      :     2.254556
      dz2     :     1.906760  d :     9.077183
      dxz     :     1.971968
      dyz     :     1.973359
      dx2y2   :     1.801793
      dxy     :     1.423303
      f0      :     0.000459  f :     0.006564
      f+1     :     0.000716
      f-1     :     0.000818
      f+2     :     0.000647
      f-2     :     0.000622
      f+3     :     0.002269
      f-3     :     0.001033
 12 O s       :     3.481910  s :     3.481910
      pz      :     1.589009  p :     4.608720
      px      :     1.562841
      py      :     1.456871
      dz2     :     0.007717  d :     0.057479
      dxz     :     0.004143
      dyz     :     0.013755
      dx2y2   :     0.018557
      dxy     :     0.013308
 13 O s       :     3.457023  s :     3.457023
      pz      :     1.518200  p :     4.619826
      px      :     1.481494
      py      :     1.620132
      dz2     :     0.010606  d :     0.062919
      dxz     :     0.013889
      dyz     :     0.013039
      dx2y2   :     0.010506
      dxy     :     0.014879
 14 O s       :     3.440579  s :     3.440579
      pz      :     1.480718  p :     4.634352
      px      :     1.541687
      py      :     1.611947
      dz2     :     0.021892  d :     0.061646
      dxz     :     0.014699
      dyz     :     0.013874
      dx2y2   :     0.005648
      dxy     :     0.005533
 15 C s       :     2.845929  s :     2.845929
      pz      :     0.942743  p :     2.715937
      px      :     0.772791
      py      :     1.000402
      dz2     :     0.105277  d :     0.311809
      dxz     :     0.064019
      dyz     :     0.086037
      dx2y2   :     0.027544
      dxy     :     0.028932
 16 O s       :     3.515094  s :     3.515094
      pz      :     1.602470  p :     4.705552
      px      :     1.584685
      py      :     1.518397
      dz2     :     0.012897  d :     0.058137
      dxz     :     0.007928
      dyz     :     0.023690
      dx2y2   :     0.008172
      dxy     :     0.005451
 17 H s       :     0.684122  s :     0.684122
 18 C s       :     2.851520  s :     2.851520
      pz      :     0.820317  p :     2.680283
      px      :     0.916191
      py      :     0.943775
      dz2     :     0.045969  d :     0.300969
      dxz     :     0.032355
      dyz     :     0.075844
      dx2y2   :     0.066610
      dxy     :     0.080191
 19 H s       :     0.876762  s :     0.876762
 20 H s       :     0.877800  s :     0.877800


                      *****************************
                      * MAYER POPULATION ANALYSIS *
                      *****************************

  NA   - Mulliken gross atomic population
  ZA   - Total nuclear charge
  QA   - Mulliken gross atomic charge
  VA   - Mayer's total valence
  BVA  - Mayer's bonded valence
  FA   - Mayer's free valence

  ATOM       NA         ZA         QA         VA         BVA        FA
  0 C      6.2000     6.0000    -0.2000     3.7778     3.7778    -0.0000
  1 C      6.2094     6.0000    -0.2094     3.7936     3.7936    -0.0000
  2 C      6.2114     6.0000    -0.2114     3.8046     3.8046    -0.0000
  3 C      6.2109     6.0000    -0.2109     3.7912     3.7912    -0.0000
  4 C      6.4619     6.0000    -0.4619     3.5754     3.5754    -0.0000
  5 C      6.1728     6.0000    -0.1728     3.7859     3.7859    -0.0000
  6 H      0.7643     1.0000     0.2357     0.9148     0.9148    -0.0000
  7 H      0.7728     1.0000     0.2272     0.9094     0.9094    -0.0000
  8 H      0.7670     1.0000     0.2330     0.9065     0.9065    -0.0000
  9 H      0.7566     1.0000     0.2434     0.9069     0.9069     0.0000
 10 H      0.7725     1.0000     0.2275     0.9095     0.9095    -0.0000
 11 Pd    17.4863    18.0000     0.5137     2.3844     2.3844    -0.0000
[...]
 ** NOTE ** -> element pd will be treated as ni
 ** NOTE ** -> element pd will be treated as ni
 ** NOTE ** -> element pd will be treated as ni
 ** NOTE ** -> element pd will be treated as ni
   60      -737.142174   -13.498371    0.001689  0.000501
 ** NOTE ** -> element pd will be treated as ni
 ** NOTE ** -> element pd will be treated as ni
 ** NOTE ** -> element pd will be treated as ni
 ** NOTE ** -> element pd will be treated as ni
   61      -737.142256   -13.549534    0.001666  0.000496

                      ***********************HURRAY********************
                      ***            THE IRC HAS CONVERGED          ***
                      *************************************************


---------------------------------------------------------------
                       IRC PATH SUMMARY              
---------------------------------------------------------------
All gradients are in Eh/Bohr.

Step        E(Eh)      dE(kcal/mol)  max(|G|)   RMS(G) 
   1      -737.142256   -13.549534    0.001666  0.000496
   2      -737.142174   -13.498371    0.001689  0.000501
   3      -737.142092   -13.446789    0.001700  0.000506
   4      -737.142010   -13.394878    0.001702  0.000512
   5      -737.141926   -13.342450    0.001740  0.000515
   6      -737.141842   -13.289641    0.001732  0.000521
   7      -737.141757   -13.236296    0.001776  0.000526
   8      -737.141671   -13.182545    0.001764  0.000531
   9      -737.141585   -13.128287    0.001815  0.000537
  10      -737.141497   -13.073501    0.001804  0.000542
  11      -737.141409   -13.018203    0.001844  0.000548
  12      -737.141320   -12.962432    0.001833  0.000554
  13      -737.141231   -12.906187    0.001887  0.000561
  14      -737.141140   -12.849283    0.001867  0.000567
  15      -737.141048   -12.791735    0.001905  0.000573
  16      -737.140956   -12.733773    0.001883  0.000581
  17      -737.140862   -12.675086    0.001949  0.000587
  18      -737.140768   -12.615907    0.001917  0.000596
  19      -737.140672   -12.555852    0.001973  0.000602
  20      -737.140576   -12.495435    0.001958  0.000612
  21      -737.140478   -12.434038    0.001997  0.000617
  22      -737.140380   -12.372369    0.002000  0.000629
  23      -737.140280   -12.309480    0.002021  0.000634
  24      -737.140179   -12.246090    0.002034  0.000644
  25      -737.140076   -12.181820    0.002044  0.000652
  26      -737.139973   -12.116802    0.002060  0.000661
  27      -737.139868   -12.051001    0.002067  0.000672
  28      -737.139761   -11.984227    0.002083  0.000680
  29      -737.139654   -11.916760    0.002090  0.000692
  30      -737.139545   -11.848234    0.002104  0.000701
  31      -737.139435   -11.779048    0.002106  0.000714
  32      -737.139322   -11.708504    0.002123  0.000722
  33      -737.139208   -11.636968    0.002129  0.000734
  34      -737.139093   -11.564841    0.002115  0.000748
  35      -737.138976   -11.491179    0.002149  0.000758
  36      -737.138857   -11.416826    0.002132  0.000771
  37      -737.138736   -11.340982    0.002157  0.000783
  38      -737.138615   -11.264586    0.002144  0.000799
  39      -737.138491   -11.186679    0.002164  0.000811
  40      -737.138365   -11.107652    0.002151  0.000824
  41      -737.138236   -11.027093    0.002158  0.000837
  42      -737.138107   -10.945915    0.002150  0.000857
  43      -737.137975   -10.862926    0.002154  0.000868
  44      -737.137841   -10.778826    0.002144  0.000884
  45      -737.137704   -10.692924    0.002143  0.000899
  46      -737.137566   -10.606343    0.002132  0.000919
  47      -737.137425   -10.517803    0.002128  0.000933
  48      -737.137281   -10.427569    0.002115  0.000949
  49      -737.137142   -10.340197    0.002656  0.001025
  50      -737.137049   -10.281974    0.004603  0.001298
  51      -737.136821   -10.138804    0.003918  0.001193
  52      -737.136229   -9.767396    0.002958  0.001124
  53      -737.135563   -9.349646    0.002603  0.001181
  54      -737.134847   -8.900637    0.003788  0.001284
  55      -737.134065   -8.409504    0.003686  0.001382
  56      -737.133220   -7.879497    0.004697  0.001523
  57      -737.132288   -7.294300    0.005303  0.001683
  58      -737.131254   -6.645678    0.006508  0.001927
  59      -737.130212   -5.991758    0.007104  0.002541
  60      -737.129351   -5.451426    0.009027  0.002839
  61      -737.126501   -3.663106    0.012488  0.003361
  62      -737.123076   -1.513767    0.011041  0.003372
  63      -737.120663    0.000000    0.000136  0.000069 <= TS
  64      -737.121349   -0.429957    0.011072  0.002718
  65      -737.121778   -0.699438    0.009639  0.001966
  66      -737.122008   -0.843805    0.007531  0.001509
  67      -737.122338   -1.050674    0.004542  0.001223
  68      -737.122677   -1.263337    0.003983  0.001171
  69      -737.123001   -1.466758    0.003731  0.001117
  70      -737.123315   -1.663638    0.003477  0.001074
  71      -737.123617   -1.853127    0.003403  0.001033
  72      -737.123907   -2.035455    0.003078  0.000990
  73      -737.124189   -2.212431    0.003085  0.000961
  74      -737.124460   -2.382725    0.002876  0.000923
  75      -737.124726   -2.549220    0.002630  0.000898
  76      -737.124984   -2.711070    0.002446  0.000872
  77      -737.125236   -2.869544    0.002350  0.000852
  78      -737.125483   -3.024479    0.002118  0.000833
  79      -737.125725   -3.176520    0.002100  0.000817
  80      -737.125963   -3.325668    0.001863  0.000805
  81      -737.126196   -3.472035    0.001862  0.000794
  82      -737.126425   -3.615739    0.001802  0.000790
  83      -737.126649   -3.755993    0.001741  0.000784
  84      -737.126868   -3.893503    0.001845  0.000795
  85      -737.127079   -4.025744    0.001835  0.000794
  86      -737.127285   -4.155193    0.002030  0.000825
  87      -737.127480   -4.277314    0.002060  0.000810
  88      -737.127674   -4.399273    0.002284  0.000851
  89      -737.127760   -4.452972    0.002125  0.000786
  90      -737.127860   -4.515703    0.001583  0.000719
  91      -737.127966   -4.582502    0.001551  0.000716
  92      -737.128072   -4.648941    0.001537  0.000713
  93      -737.128177   -4.715049    0.001523  0.000710
  94      -737.128282   -4.780812    0.001510  0.000707
  95      -737.128387   -4.846351    0.001558  0.000704
  96      -737.128490   -4.911457    0.001483  0.000701
  97      -737.128594   -4.976427    0.001566  0.000700
  98      -737.128696   -5.040850    0.001473  0.000696
  99      -737.128799   -5.105175    0.001442  0.000696
 100      -737.128901   -5.168980    0.001430  0.000692
 101      -737.129002   -5.232661    0.001483  0.000690
 102      -737.129103   -5.295972    0.001405  0.000687
 103      -737.129204   -5.359169    0.001392  0.000685
 104      -737.129304   -5.421975    0.001379  0.000684
 105      -737.129403   -5.484414    0.001367  0.000681
 106      -737.129503   -5.546737    0.001419  0.000680
 107      -737.129601   -5.608642    0.001342  0.000677
 108      -737.129700   -5.670424    0.001328  0.000676
 109      -737.129798   -5.731838    0.001335  0.000674
 110      -737.129895   -5.793024    0.001343  0.000672
 111      -737.129992   -5.853907    0.001351  0.000670
 112      -737.130089   -5.914657    0.001359  0.000668
 113      -737.130185   -5.975157    0.001369  0.000672
 114      -737.130280   -6.034800    0.001379  0.000677
 115      -737.130374   -6.093548    0.001397  0.000677
 116      -737.130467   -6.151747    0.001576  0.000675
 117      -737.130559   -6.209763    0.001446  0.000664
 118      -737.130653   -6.268681    0.001399  0.000659
 119      -737.130747   -6.327514    0.001405  0.000659
 120      -737.130840   -6.385861    0.001409  0.000656
 121      -737.130933   -6.444234    0.001416  0.000655
 122      -737.131025   -6.502200    0.001421  0.000653
 123      -737.131117   -6.559992    0.001426  0.000651
 124      -737.131209   -6.617619    0.001431  0.000649
 125      -737.131301   -6.674954    0.001436  0.000649
 126      -737.131391   -6.731910    0.001440  0.000646
 127      -737.131482   -6.788804    0.001445  0.000646
 128      -737.131572   -6.845163    0.001448  0.000644
 129      -737.131662   -6.901456    0.001452  0.000641
 130      -737.131751   -6.957569    0.001456  0.000640
 131      -737.131840   -7.013408    0.001460  0.000638
 132      -737.131929   -7.069052    0.001463  0.000637
 133      -737.132017   -7.124372    0.001466  0.000635
 134      -737.132105   -7.179611    0.001470  0.000634
 135      -737.132192   -7.234415    0.001473  0.000634
 136      -737.132279   -7.288808    0.001475  0.000631
 137      -737.132366   -7.343261    0.001478  0.000628
 138      -737.132452   -7.397492    0.001480  0.000627
 139      -737.132538   -7.451495    0.001483  0.000625
 140      -737.132624   -7.505240    0.001485  0.000623
 141      -737.132709   -7.558836    0.001487  0.000621
 142      -737.132794   -7.612233    0.001489  0.000620
 143      -737.132879   -7.665372    0.001490  0.000618
 144      -737.132963   -7.718353    0.001492  0.000616
 145      -737.133047   -7.771123    0.001493  0.000615
 146      -737.133131   -7.823570    0.001496  0.000612
 147      -737.133215   -7.876028    0.001494  0.000612
 148      -737.133297   -7.928016    0.001499  0.000613
 149      -737.133380   -7.979605    0.001497  0.000608
 150      -737.133462   -8.031387    0.001499  0.000605
 151      -737.133544   -8.082998    0.001499  0.000604
 152      -737.133626   -8.134414    0.001499  0.000601
 153      -737.133708   -8.185724    0.001501  0.000601
 154      -737.133789   -8.236733    0.001499  0.000598
 155      -737.133871   -8.287779    0.001502  0.000598
 156      -737.133951   -8.338313    0.001499  0.000596
 157      -737.134032   -8.388883    0.001499  0.000592
 158      -737.134113   -8.439446    0.001503  0.000595
 159      -737.134192   -8.489389    0.001505  0.000601
 160      -737.134270   -8.538334    0.001496  0.000594
 161      -737.134349   -8.588000    0.001498  0.000585
 162      -737.134429   -8.638064    0.001505  0.000595
 163      -737.134507   -8.686964    0.001505  0.000594
 164      -737.134585   -8.735641    0.001505  0.000593
 165      -737.134662   -8.783963    0.001498  0.000593
 166      -737.134738   -8.832225    0.001489  0.000580
 167      -737.134817   -8.881557    0.001493  0.000576
 168      -737.134896   -8.930821    0.001495  0.000579
 169      -737.134973   -8.979361    0.001485  0.000575
 170      -737.135051   -9.028463    0.001488  0.000573
 171      -737.135129   -9.077161    0.001484  0.000573
 172      -737.135206   -9.125778    0.001482  0.000568
 173      -737.135284   -9.174600    0.001480  0.000567
 174      -737.135362   -9.223364    0.001478  0.000565
 175      -737.135439   -9.272078    0.001476  0.000564
 176      -737.135517   -9.320733    0.001474  0.000562
 177      -737.135594   -9.369301    0.001472  0.000561
 178      -737.135672   -9.417842    0.001470  0.000560
 179      -737.135749   -9.466303    0.001467  0.000559
 180      -737.135826   -9.514721    0.001465  0.000558
 181      -737.135903   -9.563127    0.001463  0.000556
 182      -737.135980   -9.611428    0.001461  0.000555
 183      -737.136057   -9.659693    0.001458  0.000554
 184      -737.136134   -9.707962    0.001456  0.000553
 185      -737.136211   -9.756200    0.001453  0.000552
 186      -737.136288   -9.804392    0.001451  0.000552
 187      -737.136364   -9.852569    0.001448  0.000551
 188      -737.136441   -9.900723    0.001446  0.000550
 189      -737.136518   -9.948837    0.001443  0.000549
 190      -737.136595   -9.996972    0.001440  0.000549
 191      -737.136671   -10.045089    0.001438  0.000548
 192      -737.136748   -10.093199    0.001435  0.000547
 193      -737.136825   -10.141334    0.001433  0.000547
 194      -737.136901   -10.189443    0.001430  0.000546
 195      -737.136978   -10.237540    0.001427  0.000546
 196      -737.137055   -10.285665    0.001425  0.000545
 197      -737.137131   -10.333800    0.001422  0.000545
 198      -737.137208   -10.381945    0.001419  0.000545
 199      -737.137285   -10.430107    0.001417  0.000544
 200      -737.137362   -10.478294    0.001414  0.000544
 201      -737.137438   -10.526514    0.001411  0.000544
 202      -737.137515   -10.574725    0.001409  0.000544
 203      -737.137592   -10.622994    0.001406  0.000544
 204      -737.137669   -10.671283    0.001404  0.000544
 205      -737.137746   -10.719595    0.001401  0.000544
 206      -737.137823   -10.767952    0.001399  0.000544
 207      -737.137900   -10.816336    0.001396  0.000544
 208      -737.137977   -10.864719    0.001393  0.000544
 209      -737.138055   -10.913140    0.001391  0.000544
 210      -737.138132   -10.961649    0.001388  0.000544
 211      -737.138209   -11.010139    0.001386  0.000545
 212      -737.138287   -11.058722    0.001383  0.000545
 213      -737.138364   -11.107341    0.001381  0.000545
 214      -737.138442   -11.155982    0.001379  0.000546
 215      -737.138519   -11.204677    0.001376  0.000546
 216      -737.138597   -11.253304    0.001374  0.000546
 217      -737.138674   -11.302041    0.001371  0.000547
 218      -737.138752   -11.350895    0.001369  0.000547
 219      -737.138830   -11.399692    0.001367  0.000548
 220      -737.138908   -11.448547    0.001365  0.000549
 221      -737.138986   -11.497410    0.001362  0.000549
 222      -737.139064   -11.546372    0.001360  0.000550
 223      -737.139142   -11.595340    0.001358  0.000551
 224      -737.139220   -11.644324    0.001356  0.000551
 225      -737.139298   -11.693284    0.001354  0.000552
 226      -737.139376   -11.742307    0.001352  0.000552
 227      -737.139454   -11.791341    0.001362  0.000553
 228      -737.139532   -11.840402    0.001374  0.000554
 229      -737.139611   -11.889490    0.001384  0.000554
 230      -737.139689   -11.938581    0.001399  0.000555
 231      -737.139767   -11.987681    0.001402  0.000556
 232      -737.139845   -12.036825    0.001419  0.000556
 233      -737.139923   -12.085872    0.001421  0.000557
 234      -737.140002   -12.135040    0.001433  0.000557
 235      -737.140080   -12.184203    0.001445  0.000558
 236      -737.140158   -12.233339    0.001457  0.000558
 237      -737.140237   -12.282417    0.001463  0.000558
 238      -737.140315   -12.331523    0.001464  0.000559
 239      -737.140393   -12.380647    0.001477  0.000559
 240      -737.140471   -12.429743    0.001479  0.000559
 241      -737.140550   -12.478811    0.001483  0.000559
 242      -737.140628   -12.527866    0.001489  0.000559
 243      -737.140706   -12.576897    0.001493  0.000559
 244      -737.140784   -12.625917    0.001495  0.000559
 245      -737.140862   -12.674919    0.001503  0.000559
 246      -737.140940   -12.723915    0.001503  0.000559
 247      -737.141018   -12.772851    0.001504  0.000558
 248      -737.141096   -12.821792    0.001504  0.000558
 249      -737.141174   -12.870698    0.001494  0.000558
 250      -737.141252   -12.919588    0.001524  0.000557
 251      -737.141330   -12.968474    0.001509  0.000556
 252      -737.141408   -13.017327    0.001507  0.000556
 253      -737.141486   -13.066130    0.001533  0.000555
 254      -737.141563   -13.114888    0.001545  0.000555
 255      -737.141641   -13.163634    0.001514  0.000553
 256      -737.141719   -13.212368    0.001516  0.000553
 257      -737.141796   -13.261072    0.001506  0.000552
 258      -737.141874   -13.309703    0.001470  0.000552
 259      -737.141951   -13.358171    0.001454  0.000551
 260      -737.142028   -13.406718    0.001532  0.000549
 261      -737.142106   -13.455246    0.001557  0.000548
 262      -737.142183   -13.503752    0.001518  0.000546
 263      -737.142260   -13.552272    0.001508  0.000545
 264      -737.142338   -13.600792    0.001490  0.000544
 265      -737.142415   -13.649208    0.001508  0.000543
 266      -737.142492   -13.697615    0.001555  0.000542
 267      -737.142569   -13.745940    0.001541  0.000541
 268      -737.142646   -13.794267    0.001485  0.000540
 269      -737.142723   -13.842526    0.001492  0.000538
 270      -737.142800   -13.890767    0.001539  0.000537
 271      -737.142877   -13.938955    0.001546  0.000536
 272      -737.142953   -13.987128    0.001484  0.000535
 273      -737.143030   -14.035211    0.001495  0.000534
 274      -737.143107   -14.083255    0.001539  0.000532
 275      -737.143183   -14.131241    0.001566  0.000531
 276      -737.143259   -14.179181    0.001581  0.000530
 277      -737.143336   -14.227098    0.001525  0.000529
 278      -737.143412   -14.274931    0.001515  0.000528
 279      -737.143488   -14.322742    0.001558  0.000526
 280      -737.143564   -14.370512    0.001557  0.000525
 281      -737.143640   -14.418215    0.001540  0.000524
 282      -737.143716   -14.465831    0.001565  0.000523
 283      -737.143792   -14.513426    0.001597  0.000522
 284      -737.143868   -14.560955    0.001600  0.000521
 285      -737.143943   -14.608443    0.001589  0.000520
 286      -737.144019   -14.655822    0.001532  0.000521
 287      -737.144094   -14.702912    0.001581  0.000519
 288      -737.144169   -14.750130    0.001642  0.000517
 289      -737.144244   -14.797312    0.001718  0.000519
 290      -737.144319   -14.843980    0.001714  0.000517
 291      -737.144394   -14.890985    0.001598  0.000517
 292      -737.144468   -14.937616    0.001563  0.000519
 293      -737.144542   -14.984053    0.001665  0.000513
 294      -737.144617   -15.030795    0.001651  0.000512
 295      -737.144691   -15.077418    0.001681  0.000511
 296      -737.144765   -15.123966    0.001689  0.000510
 297      -737.144839   -15.170467    0.001702  0.000509
 298      -737.144913   -15.216858    0.001710  0.000508
 299      -737.144987   -15.263115    0.001724  0.000507
 300      -737.145060   -15.309288    0.001720  0.000507
 301      -737.145134   -15.355345    0.001731  0.000506
 302      -737.145207   -15.401314    0.001738  0.000504
 303      -737.145280   -15.447164    0.001743  0.000503
 304      -737.145353   -15.492900    0.001745  0.000502
 305      -737.145426   -15.538477    0.001753  0.000501
 306      -737.145498   -15.583962    0.001755  0.000500

Timings for individual modules:

Sum of individual times         ...    24749.590 sec (= 412.493 min)
GTO integral calculation        ...      920.697 sec (=  15.345 min)   3.7 %
SCF iterations                  ...    20191.909 sec (= 336.532 min)  81.6 %
SCF Gradient evaluation         ...     3636.984 sec (=  60.616 min)  14.7 %
================================================================================

cite the ECPs for Pd [Def2-ECP] as follows:
Ce-Yb(ecp-28): M. Dolg, H. Stoll, H.Preuss, J. Chem. Phys., 1989, 90, 1730-1734.
Y-Cd(ecp-28), Hf-Hg(ecp-46): D. Andrae,U. Haeussermann, M. Dolg, H. Stoll, H. Preuss, Theor. Chim. Acta, 1990, 77, 123-141.
In-Sb(ecp-28), Tl-Bi(ecp-46): B. Metz, H. Stoll, M. Dolg, J. Chem. Phys., 2000, 113, 2563-2569.
Te-Xe(ecp-28), Po-Rn(ecp-46): K. A. Peterson, D. Figgen, E. Goll, H. Stoll, M. Dolg, J. Chem. Phys., 2003, 119, 11113-11123.
Rb(ecp-28), Cs(ecp-46): T. Leininger, A. Nicklass, W. Kuechle, H. Stoll, M. Dolg, A. Bergner, Chem. Phys. Lett., 1996, 255, 274-280.
Sr(ecp-28), Ba(ecp-46): M. Kaupp, P. V. Schleyer, H. Stoll and H. Preuss, J. Chem. Phys., 1991, 94, 1360-1366.
La(ecp-46): M. Dolg, H. Stoll, A. Savin, H. Preuss, Theor. Chim. Acta, 1989, 75, 173-194.
Lu(ecp-28): X. Cao, M. Dolg, J. Chem. Phys., 2001, 115, 7348-7355.

ECP parameters for Pd [Def2-ECP] have been obtained from:
TURBOMOLE (7.0.2)

----- Orbital basis set information -----
Your calculation utilizes the basis: def2-SVP
   F. Weigend and R. Ahlrichs, Phys. Chem. Chem. Phys. 7, 3297 (2005).

                             ****ORCA TERMINATED NORMALLY****
TOTAL RUN TIME: 0 days 7 hours 24 minutes 19 seconds 155 msec
